[Molden Format]
[Atoms] AU
C  1 6   0.02999024   0.01240096   0.01987988
N  2 7  -0.01206813  -0.03502739   2.44121762
H  3 1   1.72994832   0.09400034  -0.85502152
H  4 1   1.54313562   0.06646847   3.41817700
H  5 1  -1.53703515   0.27674608   3.42254793
H  6 1  -1.92545973  -0.09818670  -0.75351005
[GTO]
1
s 9
    6.665000000000e+03     6.919999723323e-04
    1.000000000000e+03     5.328999832273e-03
    2.280000000000e+02     2.707700058818e-02
    6.470999908447e+01     1.017180010676e-01
    2.105999946594e+01     2.747400105000e-01
    7.494999885559e+00     4.485639929771e-01
    2.796999931335e+00     2.850739955902e-01
    5.214999914169e-01     1.520400028676e-02
    1.596000045538e-01    -3.191000083461e-03
s 9
    6.665000000000e+03    -1.460000057705e-04
    1.000000000000e+03    -1.154000055976e-03
    2.280000000000e+02    -5.725000053644e-03
    6.470999908447e+01    -2.331200055778e-02
    2.105999946594e+01    -6.395500153303e-02
    7.494999885559e+00    -1.499810069799e-01
    2.796999931335e+00    -1.272619962692e-01
    5.214999914169e-01     5.445290207863e-01
    1.596000045538e-01     5.804960131645e-01
s 1
    1.596000045538e-01     1.000000000000e+00
p 4
    9.439000129700e+00     3.810900077224e-02
    2.002000093460e+00     2.094800025225e-01
    5.455999970436e-01     5.085570216179e-01
    1.517000049353e-01     4.688419997692e-01
p 1
    1.517000049353e-01     1.000000000000e+00
d 1
    5.500000119209e-01     1.000000000000e+00
s 1
    4.690000042319e-02     1.000000000000e+00
p 1
    4.041000083089e-02     1.000000000000e+00
d 1
    1.509999930859e-01     1.000000000000e+00

2
s 9
    9.046000000000e+03     6.999999750406e-04
    1.357000000000e+03     5.388999823481e-03
    3.092999877930e+02     2.740599960089e-02
    8.773000335693e+01     1.032069995999e-01
    2.855999946594e+01     2.787230014801e-01
    1.021000003815e+01     4.485400021076e-01
    3.838000059128e+00     2.782379984856e-01
    7.465999722481e-01     1.544000022113e-02
    2.248000055552e-01    -2.863999921829e-03
s 9
    9.046000000000e+03    -1.530000008643e-04
    1.357000000000e+03    -1.208000001498e-03
    3.092999877930e+02    -5.991999991238e-03
    8.773000335693e+01    -2.454400062561e-02
    2.855999946594e+01    -6.745900213718e-02
    1.021000003815e+01    -1.580779999495e-01
    3.838000059128e+00    -1.218309998512e-01
    7.465999722481e-01     5.490030050278e-01
    2.248000055552e-01     5.788149833679e-01
s 1
    2.248000055552e-01     1.000000000000e+00
p 4
    1.355000019073e+01     3.991900011897e-02
    2.917000055313e+00     2.171690016985e-01
    7.972999811172e-01     5.103189945221e-01
    2.185000032187e-01     4.622139930725e-01
p 1
    2.185000032187e-01     1.000000000000e+00
d 1
    8.169999718666e-01     1.000000000000e+00
s 1
    6.123999878764e-02     1.000000000000e+00
p 1
    5.610999837518e-02     1.000000000000e+00
d 1
    2.300000041723e-01     1.000000000000e+00

3
s 4
    1.301000022888e+01     1.968500018120e-02
    1.962000012398e+00     1.379770040512e-01
    4.445999860764e-01     4.781480133533e-01
    1.220000013709e-01     5.012400150299e-01
s 1
    1.220000013709e-01     1.000000000000e+00
p 1
    7.269999980927e-01     1.000000000000e+00
s 1
    2.974000014365e-02     1.000000000000e+00
p 1
    1.410000026226e-01     1.000000000000e+00

4
s 4
    1.301000022888e+01     1.968500018120e-02
    1.962000012398e+00     1.379770040512e-01
    4.445999860764e-01     4.781480133533e-01
    1.220000013709e-01     5.012400150299e-01
s 1
    1.220000013709e-01     1.000000000000e+00
p 1
    7.269999980927e-01     1.000000000000e+00
s 1
    2.974000014365e-02     1.000000000000e+00
p 1
    1.410000026226e-01     1.000000000000e+00

5
s 4
    1.301000022888e+01     1.968500018120e-02
    1.962000012398e+00     1.379770040512e-01
    4.445999860764e-01     4.781480133533e-01
    1.220000013709e-01     5.012400150299e-01
s 1
    1.220000013709e-01     1.000000000000e+00
p 1
    7.269999980927e-01     1.000000000000e+00
s 1
    2.974000014365e-02     1.000000000000e+00
p 1
    1.410000026226e-01     1.000000000000e+00

6
s 4
    1.301000022888e+01     1.968500018120e-02
    1.962000012398e+00     1.379770040512e-01
    4.445999860764e-01     4.781480133533e-01
    1.220000013709e-01     5.012400150299e-01
s 1
    1.220000013709e-01     1.000000000000e+00
p 1
    7.269999980927e-01     1.000000000000e+00
s 1
    2.974000014365e-02     1.000000000000e+00
p 1
    1.410000026226e-01     1.000000000000e+00

[MO]
Ene=    -14.34530305
Spin= Alpha
Occup=      2.00000000
1     -0.00007181
2     -0.00026642
3     -0.02213384
4      0.00002412
5     -0.00002732
6      0.00029553
7      0.00056527
8      0.00057926
9     -0.00693238
10      0.00010195
11     -0.00014817
12      0.00014550
13      0.00003413
14     -0.00000279
15     -0.00002825
16     -0.00401199
17     -0.00018633
18     -0.00010926
19     -0.00054289
20     -0.00214281
21     -0.00120851
22     -0.00418769
23     -0.00031731
24      0.00055931
25      0.00037308
26      1.00573658
27      0.03756578
28     -0.00481071
29      0.00002054
30      0.00007190
31     -0.00012346
32     -0.00016236
33      0.00016912
34     -0.00320134
35     -0.00695613
36     -0.00650817
37     -0.00679311
38      0.00002609
39     -0.00002199
40     -0.00006527
41      0.01051212
42      0.00029773
43      0.00044985
44      0.00067326
45      0.00675699
46      0.00648121
47      0.00825418
48      0.00000292
49      0.00020234
50      0.00021726
51     -0.00017639
52      0.00808523
53      0.00009519
54      0.00001455
55     -0.00017856
56      0.00052823
57     -0.00194645
58      0.00003476
59      0.00146815
60      0.00112107
61     -0.01204232
62     -0.00043836
63     -0.00007165
64     -0.00033948
65     -0.00068699
66      0.00289232
67      0.00024967
68      0.00185665
69      0.00114237
70     -0.01134848
71      0.00042152
72     -0.00014122
73     -0.00031094
74     -0.00054144
75     -0.00261664
76      0.00068900
77      0.00185748
78     -0.00019446
79      0.00701209
80     -0.00011007
81     -0.00002820
82     -0.00013642
83      0.00026592
84      0.00182118
85      0.00000050
86      0.00166545
Ene=    -10.25069547
Spin= Alpha
Occup=      2.00000000
1     -1.00419468
2     -0.03816447
3     -0.00166798
4     -0.00046597
5      0.00006969
6     -0.00206699
7      0.00063711
8      0.00018822
9     -0.00227120
10      0.00899612
11      0.00897490
12      0.00837380
13     -0.00000505
14      0.00024995
15      0.00004438
16     -0.00446594
17     -0.00016034
18     -0.00002313
19     -0.00133635
20     -0.00108617
21     -0.00075082
22     -0.00296321
23     -0.00010655
24     -0.00007240
25      0.00008164
26      0.00016187
27     -0.00000580
28      0.00567398
29     -0.00000873
30     -0.00002388
31      0.00023093
32     -0.00003383
33      0.00002397
34     -0.00392146
35     -0.00022651
36     -0.00004310
37      0.00059247
38      0.00001547
39      0.00000935
40     -0.00002981
41      0.00718366
42      0.00018399
43      0.00009618
44     -0.00180007
45      0.00047550
46      0.00114277
47      0.00259194
48      0.00003951
49      0.00006637
50      0.00006940
51     -0.00039105
52      0.00560007
53     -0.00022792
54     -0.00000786
55      0.00006660
56     -0.00027982
57     -0.00138749
58     -0.00001806
59      0.00047812
60      0.00076019
61     -0.00128733
62      0.00005503
63     -0.00002577
64     -0.00021898
65      0.00037422
66      0.00019493
67     -0.00000516
68     -0.00020739
69      0.00077888
70     -0.00151251
71     -0.00004358
72     -0.00003174
73     -0.00020622
74      0.00051174
75     -0.00026600
76      0.00005206
77     -0.00003120
78     -0.00083522
79      0.00574344
80     -0.00012499
81     -0.00001634
82     -0.00001901
83     -0.00055355
84      0.00157993
85      0.00003619
86      0.00043097
Ene=     -1.17886967
Spin= Alpha
Occup=      2.00000000
1      0.02424126
2     -0.38580616
3      0.19157113
4      0.00083188
5      0.00217551
6     -0.23043724
7      0.00048300
8     -0.00002307
9      0.05886749
10      0.01919173
11      0.01569615
12     -0.02297076
13      0.00073109
14     -0.00014216
15      0.00013455
16     -0.06166345
17      0.00632681
18      0.00049734
19     -0.01519149
20      0.02439689
21      0.01866815
22      0.02216887
23      0.00463885
24     -0.00799731
25      0.00032006
26      0.02833611
27     -0.75951548
28      0.21505136
29     -0.00503092
30     -0.02416138
31      0.10064725
32      0.00588514
33      0.01766029
34      0.01692751
35      0.00894354
36      0.01377628
37     -0.00299991
38      0.00052592
39      0.00043411
40      0.00007429
41      0.10781955
42     -0.00379562
43      0.00114851
44     -0.01491747
45      0.06530100
46      0.02121462
47      0.03801815
48     -0.00445090
49     -0.00288142
50      0.00382829
51     -0.09327685
52     -0.03190647
53      0.00865264
54      0.00008306
55     -0.00824210
56     -0.00323745
57      0.02440908
58     -0.00112318
59     -0.00864952
60     -0.27818561
61      0.05652273
62      0.02348412
63      0.00110436
64      0.01735128
65      0.00232996
66      0.02063244
67      0.00236174
68      0.01656260
69     -0.27718934
70      0.04346805
71     -0.02306835
72      0.00392548
73      0.01675153
74      0.00048988
75     -0.02281637
76      0.00543019
77      0.01817211
78     -0.08076201
79     -0.01113095
80     -0.00902732
81     -0.00027187
82     -0.00716935
83      0.00611081
84     -0.01788337
85      0.00215156
86     -0.01147402
Ene=     -0.90516656
Spin= Alpha
Occup=      2.00000000
1      0.02274288
2     -0.64604828
3      0.35979727
4     -0.03247347
5      0.01149772
6     -0.03748456
7      0.07043820
8     -0.00215795
9     -0.09172914
10      0.01415306
11      0.01130694
12      0.01537168
13     -0.00036269
14      0.00033435
15      0.00226628
16      0.15891602
17      0.02280678
18     -0.00096974
19      0.02473110
20      0.17339241
21      0.04795631
22      0.03483886
23      0.00223047
24     -0.01056223
25     -0.00252324
26     -0.00719292
27      0.29417115
28     -0.05036052
29     -0.02134547
30      0.03810250
31      0.49743780
32      0.00605240
33     -0.01665768
34     -0.19171038
35      0.00676717
36     -0.00235785
37     -0.01875702
38     -0.00102427
39      0.00055138
40      0.00238577
41     -0.18682681
42     -0.00798080
43      0.00150824
44      0.04745970
45     -0.07657669
46      0.00546864
47      0.00376691
48      0.00438608
49      0.00346221
50     -0.00246428
51     -0.32504382
52     -0.18110103
53      0.01786132
54      0.00139545
55     -0.01065134
56     -0.02038101
57      0.04789915
58      0.00406283
59     -0.05132746
60      0.34871191
61     -0.06796478
62     -0.02242892
63     -0.00122367
64     -0.00613372
65     -0.00927525
66     -0.01532239
67     -0.00310880
68     -0.02871543
69      0.38115695
70     -0.08325580
71      0.02303227
72     -0.00507017
73     -0.00700263
74     -0.00773979
75      0.01674915
76     -0.00719069
77     -0.02776379
78     -0.24041184
79     -0.06349707
80     -0.01665102
81     -0.00088524
82     -0.00749568
83      0.01617220
84     -0.02550759
85     -0.00650635
86     -0.02528120
Ene=     -0.80834965
Spin= Alpha
Occup=      2.00000000
1     -0.00035036
2     -0.00835656
3     -0.05813036
4      0.37995333
5      0.00218939
6     -0.04663888
7     -0.32379845
8     -0.00393488
9     -0.00005285
10      0.00042543
11      0.00116902
12     -0.00246263
13     -0.00008196
14      0.02093514
15     -0.00062895
16     -0.00114524
17     -0.02978292
18     -0.00139997
19      0.00414290
20      0.01777535
21      0.00730450
22     -0.00273136
23      0.01280542
24      0.00757120
25      0.00081299
26     -0.00031100
27      0.00228217
28      0.01649008
29      0.65861110
30     -0.03177576
31      0.06500037
32     -0.20223699
33      0.01285439
34     -0.03719254
35      0.00201928
36     -0.00075227
37     -0.00063043
38      0.00474328
39      0.00501593
40     -0.00055400
41     -0.01570181
42     -0.00606008
43      0.00081498
44      0.00537788
45     -0.00741842
46      0.00265421
47      0.00989731
48     -0.01080797
49     -0.09174934
50      0.00493122
51      0.25381743
52      0.08212527
53     -0.00687801
54     -0.00110417
55      0.00362177
56      0.02467782
57     -0.04838241
58     -0.01168358
59      0.03256270
60      0.52742456
61     -0.06783099
62     -0.01394388
63     -0.00287299
64     -0.01482484
65      0.00847158
66     -0.05708169
67     -0.00075406
68     -0.01824178
69     -0.46078538
70      0.06274510
71     -0.01016942
72      0.00440995
73      0.01517713
74     -0.01089003
75     -0.05275091
76      0.00667800
77      0.00841595
78     -0.22465228
79     -0.09292954
80     -0.00501792
81     -0.00017633
82     -0.00360396
83     -0.01824841
84     -0.05061260
85      0.00164736
86     -0.02621959
Ene=     -0.73316517
Spin= Alpha
Occup=      2.00000000
1     -0.01180276
2      0.23370841
3     -0.27404776
4      0.09911824
5      0.04246586
6     -0.65292968
7     -0.09243869
8     -0.01461679
9      0.03996243
10      0.01664793
11      0.00843730
12     -0.03054265
13     -0.00012715
14     -0.00648038
15      0.00440478
16     -0.01532652
17     -0.03174225
18     -0.00301306
19      0.00467536
20     -0.00730758
21      0.04270008
22      0.00596508
23     -0.00678603
24      0.03616455
25     -0.00139458
26     -0.00067015
27     -0.11889719
28      0.10607030
29     -0.11549258
30      0.06345595
31      0.53706725
32      0.04317611
33     -0.01357369
34     -0.27133863
35      0.00920597
36      0.00048315
37     -0.00309657
38     -0.00146504
39     -0.00466888
40      0.00165018
41     -0.03633405
42      0.01649800
43      0.00181722
44      0.03899610
45     -0.01754307
46      0.00934761
47      0.09826517
48      0.00739918
49      0.01382122
50     -0.00439723
51      0.49272505
52     -0.08652796
53     -0.02217522
54      0.00026988
55      0.00395999
56      0.03760295
57     -0.01216790
58      0.00074659
59      0.02968142
60      0.11989075
61     -0.05185853
62     -0.00856193
63      0.00070860
64      0.00741947
65     -0.00925526
66      0.00766737
67     -0.00037554
68     -0.02562090
69      0.32741694
70     -0.02226474
71      0.01267155
72     -0.00121242
73      0.00125487
74     -0.00611582
75      0.02352363
76     -0.00374982
77     -0.04810821
78      0.27055093
79     -0.18631766
80      0.01767757
81      0.00165496
82     -0.00124214
83     -0.01094640
84     -0.03556081
85     -0.00640690
86      0.01960598
Ene=     -0.64786540
Spin= Alpha
Occup=      2.00000000
1     -0.00145799
2      0.04396506
3      0.01672228
4     -0.58956058
5     -0.18506877
6     -0.13429643
7      0.34225669
8      0.05824604
9      0.00598767
10      0.00502142
11      0.00253331
12     -0.00606840
13      0.00102780
14      0.02224240
15     -0.01013226
16      0.02833712
17      0.07453687
18      0.00516131
19     -0.00409876
20     -0.02097328
21      0.00334769
22      0.01303966
23      0.00211173
24     -0.08441801
25      0.00021200
26     -0.00100467
27     -0.02262189
28     -0.00306239
29      0.32779452
30     -0.25275577
31      0.11563830
32     -0.13139446
33      0.01880053
34     -0.03326538
35      0.00244434
36     -0.00143778
37     -0.00024010
38      0.00285837
39      0.02724272
40      0.00432887
41     -0.01952692
42     -0.03673263
43     -0.00865352
44      0.01243199
45     -0.00432202
46     -0.00408535
47      0.01099933
48     -0.00796859
49     -0.02926410
50      0.00806053
51     -0.41612150
52     -0.15775425
53      0.00341988
54     -0.00395346
55     -0.01133252
56     -0.06036426
57      0.08835282
58      0.00062513
59     -0.01560427
60      0.37711537
61      0.05104842
62     -0.00655015
63     -0.00745378
64     -0.00572106
65      0.00024625
66     -0.05219792
67     -0.00069958
68     -0.04356313
69     -0.31915379
70     -0.04290499
71     -0.00475666
72     -0.00446004
73      0.01002461
74     -0.00219745
75     -0.04572997
76      0.00813655
77      0.02797149
78      0.58789219
79      0.09366669
80      0.01333955
81     -0.00230175
82      0.00909154
83      0.05317240
84      0.08907241
85      0.00695666
86      0.02756039
Ene=     -0.61748766
Spin= Alpha
Occup=      2.00000000
1      0.00046709
2     -0.02351844
3      0.03212483
4      0.21869551
5     -0.49117063
6     -0.02013295
7     -0.10861859
8      0.09755425
9      0.01491983
10     -0.00023840
11      0.00166385
12     -0.00107182
13      0.00016267
14     -0.01084728
15     -0.03249249
16      0.01299542
17     -0.02524255
18      0.00474087
19      0.00701760
20      0.01175674
21      0.00707711
22      0.00750636
23     -0.00187518
24      0.03404948
25      0.00624974
26     -0.00223291
27      0.05359152
28      0.00885841
29     -0.16595582
30     -0.71610796
31      0.03438173
32      0.04651625
33      0.02378489
34      0.00039585
35      0.00070079
36     -0.00346650
37      0.00094948
38     -0.00188495
39     -0.01063852
40      0.01311961
41     -0.03250676
42      0.01284739
43     -0.03241799
44      0.00620913
45     -0.00800480
46     -0.01409867
47     -0.00820674
48      0.00280340
49      0.01156136
50      0.01322286
51      0.17148828
52      0.02149556
53     -0.00119921
54     -0.01220012
55      0.00340538
56      0.02135172
57     -0.02218188
58     -0.00227344
59     -0.00055537
60     -0.15225400
61      0.00407996
62      0.00300260
63     -0.01916557
64      0.00508293
65     -0.00235373
66      0.01587237
67     -0.00294161
68      0.01009289
69      0.10203064
70      0.05536049
71     -0.00259132
72     -0.01977806
73      0.00011792
74      0.00038226
75      0.02356532
76     -0.00682402
77     -0.01748621
78     -0.18243159
79     -0.05665635
80     -0.00242568
81     -0.01076652
82     -0.00317874
83     -0.01750106
84     -0.03714504
85     -0.00798239
86     -0.00669888
Ene=     -0.36815835
Spin= Alpha
Occup=      0.00000000
1      0.00036154
2      0.00484029
3     -0.02198606
4      0.03873552
5     -0.85633077
6      0.00929094
7      0.00431486
8     -0.01914494
9     -0.01789066
10      0.00061778
11     -0.00161568
12      0.00026237
13     -0.00155917
14      0.00352282
15      0.02471780
16      0.02584068
17     -0.00344616
18     -0.08055435
19      0.00666662
20      0.00250255
21     -0.00267029
22     -0.00705864
23     -0.00158992
24      0.00423819
25      0.01367103
26      0.00051104
27     -0.04655983
28     -0.02541399
29      0.03174374
30      0.59522203
31     -0.03391164
32      0.00776951
33      0.04752368
34     -0.00924296
35      0.00076600
36      0.00090839
37      0.00059927
38     -0.00071259
39     -0.00320957
40      0.02680761
41     -0.05405465
42      0.01114176
43      0.10069772
44      0.00682447
45     -0.00039028
46      0.00586150
47      0.00590006
48      0.00058152
49      0.00085151
50      0.03282456
51     -0.01811839
52      0.00607704
53      0.00122757
54     -0.02727602
55     -0.00001626
56      0.00465445
57     -0.00135150
58     -0.02421562
59      0.00182714
60      0.02122779
61     -0.01156119
62     -0.00024600
63      0.02017578
64     -0.00237506
65     -0.00611047
66      0.00466403
67      0.01968864
68     -0.00243689
69      0.08759959
70      0.00879629
71      0.00285844
72      0.02032053
73     -0.00171893
74      0.00682276
75      0.00539760
76      0.02016795
77     -0.00431650
78      0.02722088
79     -0.00264117
80      0.00130115
81     -0.02417258
82      0.00012783
83     -0.00515183
84      0.00100283
85     -0.02427586
86      0.00065552
Ene=     -0.21587141
Spin= Alpha
Occup=      0.00000000
1     -0.00864208
2     -0.22462774
3     -0.58807927
4      0.09031955
5      0.01127180
6      0.23739029
7      0.01033398
8      0.00884848
9      0.07191858
10      0.03928727
11      0.00074854
12     -0.02153618
13      0.00125366
14      0.00585836
15     -0.00231316
16     -0.02745380
17      0.01495060
18      0.00782149
19      0.23546259
20     -0.08057885
21     -0.03793675
22     -0.05337003
23     -0.00463906
24      0.00737514
25      0.00236916
26     -0.00407505
27     -0.38091828
28     -0.20291959
29      0.02786874
30     -0.05782160
31     -0.17707374
32     -0.00251350
33     -0.00450899
34      0.01500490
35      0.02162248
36      0.00071719
37     -0.00185526
38     -0.00123630
39     -0.00580548
40      0.00015894
41     -0.08158425
42     -0.01361178
43      0.01370127
44      0.01896811
45      0.08550089
46      0.03109395
47      0.04400639
48     -0.00403502
49     -0.00534329
50      0.00558332
51      0.04638452
52      0.42631930
53      0.02026796
54      0.00159087
55      0.00607590
56      0.14463246
57     -0.01007761
58     -0.00102421
59      0.10254164
60      0.11709301
61      0.10373688
62      0.02517214
63      0.00004266
64      0.00437332
65      0.10967361
66      0.09523663
67      0.00308398
68      0.02235378
69      0.17783326
70      0.13199668
71     -0.02919507
72      0.00384939
73      0.00831405
74      0.14916082
75     -0.10554082
76      0.01468399
77      0.03374826
78      0.13717112
79      0.45581231
80     -0.02417237
81     -0.00035185
82      0.00498460
83      0.21442875
84      0.00379138
85      0.00905204
86      0.08888439
Ene=     -0.17576487
Spin= Alpha
Occup=      0.00000000
1      0.00331717
2      0.14136426
3      0.07507392
4     -0.35566463
5     -0.02423032
6     -0.04412301
7      0.02204424
8     -0.00090819
9     -0.05893732
10     -0.01251059
11      0.00700802
12     -0.00276344
13      0.00082707
14     -0.04076653
15     -0.00020623
16     -0.00206224
17      0.08042178
18     -0.01001597
19     -0.05306074
20     -0.00501947
21      0.01059941
22     -0.02029841
23     -0.00054258
24     -0.02719536
25      0.00081328
26     -0.00023295
27     -0.11160374
28      0.00342635
29     -0.37188021
30      0.01184025
31     -0.05458419
32     -0.02626838
33      0.00459046
34     -0.01179376
35      0.00006457
36      0.00067065
37      0.00506531
38      0.00270094
39      0.03279570
40     -0.00018194
41      0.21638793
42      0.09669571
43      0.02343717
44      0.02685092
45      0.03206229
46      0.02072892
47      0.04033159
48      0.00271964
49      0.05655722
50     -0.00030571
51      0.02130382
52      0.03536269
53      0.00768529
54     -0.00008921
55     -0.00437593
56      0.08813067
57      0.04386035
58      0.00531891
59     -0.01746265
60      0.22292839
61      0.17402400
62      0.02633312
63      0.00352288
64      0.02343969
65      0.55142781
66      0.10255939
67      0.01955926
68      0.07879074
69     -0.14114467
70     -0.22597484
71      0.01411906
72     -0.00320785
73     -0.01006984
74     -0.28526653
75      0.04968135
76     -0.00622599
77      0.00685958
78     -0.21955826
79     -0.26130468
80      0.02315408
81      0.00043303
82      0.00899819
83     -0.35458476
84      0.08006592
85     -0.00849064
86      0.03013769
Ene=     -0.16235964
Spin= Alpha
Occup=      0.00000000
1      0.01254827
2      0.46450202
3      0.45633383
4      0.04841061
5     -0.00444839
6     -0.10565729
7     -0.01732840
8      0.00807845
9     -0.16185056
10     -0.03110238
11      0.01232419
12     -0.01608291
13     -0.00368317
14      0.01429765
15     -0.00225666
16      0.16389460
17     -0.06814141
18      0.00523988
19     -0.14988495
20      0.03396483
21      0.04050540
22     -0.03158027
23     -0.00666973
24      0.01320200
25      0.00282408
26     -0.00074391
27     -0.21588818
28      0.01627988
29      0.15241807
30     -0.04792458
31     -0.04411305
32      0.01560240
33     -0.00158595
34     -0.03547354
35     -0.00497196
36     -0.00181723
37      0.01947133
38     -0.00242756
39     -0.00966051
40      0.00137447
41      0.30446721
42     -0.01284908
43      0.02738131
44      0.16679314
45      0.04502397
46      0.02900144
47      0.09662458
48     -0.00478791
49     -0.02104278
50      0.00390390
51     -0.15856135
52     -0.47344326
53     -0.02984445
54     -0.00101405
55      0.01201647
56     -0.55223866
57     -0.04249586
58     -0.00038696
59      0.01224836
60      0.01315014
61     -0.13078021
62     -0.00045111
63     -0.00102492
64      0.01066746
65      0.05652930
66     -0.00663809
67     -0.00301269
68      0.08154623
69      0.13561259
70      0.05469422
71     -0.01502597
72      0.00415546
73      0.02407908
74      0.53864402
75     -0.05665647
76      0.03257720
77      0.11222849
78     -0.14513829
79     -0.40044352
80      0.02075202
81      0.00207306
82      0.00740215
83     -0.48427553
84      0.00035144
85      0.00725081
86      0.00991255
Ene=     -0.12063606
Spin= Alpha
Occup=      0.00000000
1     -0.00600855
2     -0.00442221
3     -0.33244902
4      0.08611663
5      0.27329062
6      0.04551370
7     -0.00529101
8      0.03531768
9      0.29188213
10      0.03911337
11     -0.01997441
12     -0.01726351
13      0.00432733
14     -0.00100714
15      0.01686687
16      0.43762146
17      0.19224146
18     -0.51812749
19      0.59608453
20     -0.18754482
21     -0.08832728
22     -0.00823207
23     -0.00676207
24     -0.00113068
25      0.01960922
26     -0.00378666
27     -0.07229912
28     -0.30799153
29     -0.06681915
30      0.19651448
31      0.04748121
32     -0.02376385
33      0.00453148
34      0.07511640
35      0.01106537
36     -0.00773684
37      0.00026297
38      0.00145144
39      0.00007455
40     -0.01432627
41     -1.22922511
42     -0.16301563
43     -0.38698608
44      0.24702256
45     -0.03022929
46     -0.04431299
47     -0.03727973
48      0.00396384
49      0.00098512
50     -0.01097067
51      0.12592880
52      0.59088865
53      0.00667443
54     -0.00160742
55      0.00824876
56     -0.38045005
57     -0.04019778
58     -0.01847788
59      0.17885239
60      0.07269215
61      0.38742146
62      0.00511670
63     -0.00627806
64      0.00004386
65      0.14740438
66      0.02480015
67     -0.05200838
68     -0.06445512
69      0.03771438
70      0.17000229
71     -0.00050958
72     -0.00860850
73     -0.00638763
74     -0.58578325
75      0.00072549
76     -0.08543245
77     -0.08128011
78      0.16254053
79      0.64698962
80     -0.01220083
81     -0.00472871
82      0.00418207
83      0.47907984
84      0.01920505
85     -0.03446969
86      0.12386337
Ene=     -0.11557904
Spin= Alpha
Occup=      0.00000000
1     -0.01634246
2     -0.07665633
3     -0.85726535
4      0.06497016
5     -0.15387516
6      0.04786840
7      0.01705552
8     -0.02789262
9      0.52078116
10      0.06779360
11     -0.03394279
12     -0.02819402
13      0.00462762
14     -0.00254974
15     -0.00952611
16      0.08517687
17      0.06314114
18      0.36036809
19      0.91255944
20     -0.38414117
21     -0.22276782
22     -0.07320618
23     -0.00383784
24     -0.00382465
25     -0.02169918
26     -0.00396440
27     -0.07123297
28     -0.39042171
29     -0.06333443
30     -0.12167201
31      0.08386894
32     -0.01971273
33     -0.01466740
34      0.14241175
35      0.02171075
36     -0.01603798
37     -0.00202375
38      0.00016305
39      0.00001700
40      0.00836029
41     -1.37176640
42     -0.00252819
43      0.18475114
44     -0.00766069
45     -0.01587345
46     -0.06367058
47     -0.07563590
48      0.00088093
49      0.00684478
50      0.00949342
51      0.21493652
52      1.17475070
53      0.01836690
54      0.00245429
55      0.00966408
56      0.00559309
57     -0.06783408
58      0.00173715
59      0.28021894
60      0.12861415
61      0.40922842
62      0.00863852
63      0.00334462
64     -0.00610798
65     -0.19897736
66      0.05904024
67      0.02578906
68     -0.08545790
69      0.10904323
70      0.29833230
71     -0.00444156
72      0.00138049
73     -0.01036679
74     -0.58798470
75     -0.03657070
76     -0.00763064
77     -0.08993495
78      0.28571355
79      1.22624369
80     -0.01799619
81      0.00203561
82      0.00828479
83      0.23422400
84      0.10488606
85      0.03349308
86      0.23742037
Ene=     -0.09338174
Spin= Alpha
Occup=      0.00000000
1     -0.00064427
2      0.00019524
3      0.38203886
4     -0.32723703
5      0.03770334
6     -0.05261849
7     -0.19231108
8      0.00266983
9     -0.04676675
10      0.00362401
11      0.01274490
12     -0.01295453
13     -0.00472409
14      0.00083799
15      0.00218648
16      1.09774861
17     -0.00084935
18     -0.17047208
19      0.84751729
20      0.11964826
21      0.04990693
22     -0.00167700
23     -0.00661964
24      0.00093111
25      0.00635891
26     -0.00265154
27     -0.04587743
28     -0.08443187
29      0.27750229
30      0.01496952
31      0.07716143
32      0.03388261
33     -0.00227773
34     -0.01618577
35      0.00519002
36      0.00340982
37     -0.00540940
38     -0.00412378
39     -0.00069950
40     -0.00111280
41     -1.03457146
42     -0.09216586
43     -0.06400856
44     -0.07159908
45     -0.01933806
46      0.00996791
47     -0.01880309
48     -0.00476208
49     -0.01677851
50     -0.00017782
51     -0.04802564
52      0.03879903
53      0.01302228
54     -0.00032809
55     -0.00898303
56      1.87302805
57      0.08160307
58     -0.01642050
59     -0.04912009
60     -0.02357235
61     -0.03309418
62     -0.01044272
63     -0.00350146
64     -0.01938923
65     -1.85201611
66     -0.08431043
67     -0.04558988
68     -0.14801939
69      0.05614784
70      0.29277592
71     -0.01427414
72      0.00351602
73      0.01019720
74      1.21641440
75     -0.06269923
76      0.02792993
77      0.01421403
78     -0.02425324
79     -0.76080639
80      0.01369295
81      0.00094534
82      0.01786392
83     -1.52408642
84     -0.04264620
85      0.01240321
86      0.01387264
Ene=     -0.08789931
Spin= Alpha
Occup=      0.00000000
1     -0.01176800
2     -0.09699750
3     -2.24919552
4     -0.09339562
5      0.01966668
6      0.18248267
7     -0.07174768
8      0.01066101
9      0.72161179
10      0.03609859