[Molden Format]
[Atoms] AU
C  1 6   0.03915645  -0.21322241  -0.16421759
N  2 7   0.02573808   0.21058385   2.69107966
H  3 1   1.42784814   0.56507354  -1.33574461
H  4 1   1.21870637  -0.56288752   3.87247626
H  5 1  -1.72176782  -0.94914773   3.28066157
H  6 1  -1.65719122   0.64382102  -1.52732678
[GTO]
1
s 9
    6.665000000000e+03     6.919999723323e-04
    1.000000000000e+03     5.328999832273e-03
    2.280000000000e+02     2.707700058818e-02
    6.470999908447e+01     1.017180010676e-01
    2.105999946594e+01     2.747400105000e-01
    7.494999885559e+00     4.485639929771e-01
    2.796999931335e+00     2.850739955902e-01
    5.214999914169e-01     1.520400028676e-02
    1.596000045538e-01    -3.191000083461e-03
s 9
    6.665000000000e+03    -1.460000057705e-04
    1.000000000000e+03    -1.154000055976e-03
    2.280000000000e+02    -5.725000053644e-03
    6.470999908447e+01    -2.331200055778e-02
    2.105999946594e+01    -6.395500153303e-02
    7.494999885559e+00    -1.499810069799e-01
    2.796999931335e+00    -1.272619962692e-01
    5.214999914169e-01     5.445290207863e-01
    1.596000045538e-01     5.804960131645e-01
s 1
    1.596000045538e-01     1.000000000000e+00
p 4
    9.439000129700e+00     3.810900077224e-02
    2.002000093460e+00     2.094800025225e-01
    5.455999970436e-01     5.085570216179e-01
    1.517000049353e-01     4.688419997692e-01
p 1
    1.517000049353e-01     1.000000000000e+00
d 1
    5.500000119209e-01     1.000000000000e+00
s 1
    4.690000042319e-02     1.000000000000e+00
p 1
    4.041000083089e-02     1.000000000000e+00
d 1
    1.509999930859e-01     1.000000000000e+00

2
s 9
    9.046000000000e+03     6.999999750406e-04
    1.357000000000e+03     5.388999823481e-03
    3.092999877930e+02     2.740599960089e-02
    8.773000335693e+01     1.032069995999e-01
    2.855999946594e+01     2.787230014801e-01
    1.021000003815e+01     4.485400021076e-01
    3.838000059128e+00     2.782379984856e-01
    7.465999722481e-01     1.544000022113e-02
    2.248000055552e-01    -2.863999921829e-03
s 9
    9.046000000000e+03    -1.530000008643e-04
    1.357000000000e+03    -1.208000001498e-03
    3.092999877930e+02    -5.991999991238e-03
    8.773000335693e+01    -2.454400062561e-02
    2.855999946594e+01    -6.745900213718e-02
    1.021000003815e+01    -1.580779999495e-01
    3.838000059128e+00    -1.218309998512e-01
    7.465999722481e-01     5.490030050278e-01
    2.248000055552e-01     5.788149833679e-01
s 1
    2.248000055552e-01     1.000000000000e+00
p 4
    1.355000019073e+01     3.991900011897e-02
    2.917000055313e+00     2.171690016985e-01
    7.972999811172e-01     5.103189945221e-01
    2.185000032187e-01     4.622139930725e-01
p 1
    2.185000032187e-01     1.000000000000e+00
d 1
    8.169999718666e-01     1.000000000000e+00
s 1
    6.123999878764e-02     1.000000000000e+00
p 1
    5.610999837518e-02     1.000000000000e+00
d 1
    2.300000041723e-01     1.000000000000e+00

3
s 4
    1.301000022888e+01     1.968500018120e-02
    1.962000012398e+00     1.379770040512e-01
    4.445999860764e-01     4.781480133533e-01
    1.220000013709e-01     5.012400150299e-01
s 1
    1.220000013709e-01     1.000000000000e+00
p 1
    7.269999980927e-01     1.000000000000e+00
s 1
    2.974000014365e-02     1.000000000000e+00
p 1
    1.410000026226e-01     1.000000000000e+00

4
s 4
    1.301000022888e+01     1.968500018120e-02
    1.962000012398e+00     1.379770040512e-01
    4.445999860764e-01     4.781480133533e-01
    1.220000013709e-01     5.012400150299e-01
s 1
    1.220000013709e-01     1.000000000000e+00
p 1
    7.269999980927e-01     1.000000000000e+00
s 1
    2.974000014365e-02     1.000000000000e+00
p 1
    1.410000026226e-01     1.000000000000e+00

5
s 4
    1.301000022888e+01     1.968500018120e-02
    1.962000012398e+00     1.379770040512e-01
    4.445999860764e-01     4.781480133533e-01
    1.220000013709e-01     5.012400150299e-01
s 1
    1.220000013709e-01     1.000000000000e+00
p 1
    7.269999980927e-01     1.000000000000e+00
s 1
    2.974000014365e-02     1.000000000000e+00
p 1
    1.410000026226e-01     1.000000000000e+00

6
s 4
    1.301000022888e+01     1.968500018120e-02
    1.962000012398e+00     1.379770040512e-01
    4.445999860764e-01     4.781480133533e-01
    1.220000013709e-01     5.012400150299e-01
s 1
    1.220000013709e-01     1.000000000000e+00
p 1
    7.269999980927e-01     1.000000000000e+00
s 1
    2.974000014365e-02     1.000000000000e+00
p 1
    1.410000026226e-01     1.000000000000e+00

[MO]
Ene=    -14.81585301
Spin= Alpha
Occup=      1.00000000
1      0.00003626
2      0.00016476
3     -0.00575059
4     -0.00003334
5      0.00007818
6      0.00024450
7      0.00003922
8     -0.00137007
9     -0.00218592
10     -0.00002182
11     -0.00000892
12      0.00024639
13      0.00001046
14     -0.00002134
15      0.00004864
16      0.00250675
17     -0.00016199
18      0.00029934
19      0.00061962
20     -0.00043227
21     -0.00019759
22     -0.00091464
23     -0.00002059
24      0.00000435
25     -0.00073290
26      1.00416063
27      0.02739268
28     -0.01122680
29     -0.00013711
30     -0.00045642
31      0.00008750
32      0.00068470
33     -0.00005606
34     -0.00117433
35     -0.00501627
36     -0.00493622
37     -0.00506298
38     -0.00005980
39      0.00002472
40      0.00004092
41     -0.00157764
42      0.00052671
43     -0.00044539
44      0.00159805
45      0.00338246
46      0.00300253
47      0.00425263
48     -0.00000686
49      0.00011289
50     -0.00021678
51      0.00001893
52      0.00151361
53      0.00005003
54      0.00003655
55      0.00002408
56      0.00007446
57     -0.00025977
58     -0.00029590
59      0.00071495
60      0.00057082
61     -0.00577732
62     -0.00015564
63      0.00008012
64     -0.00014228
65     -0.00055472
66      0.00118567
67     -0.00103090
68      0.00089857
69      0.00065377
70     -0.00181064
71      0.00025262
72      0.00014501
73     -0.00007996
74     -0.00007440
75     -0.00047793
76     -0.00052052
77      0.00012687
78      0.00004363
79      0.00135550
80     -0.00001636
81      0.00000641
82      0.00003897
83     -0.00004174
84      0.00029537
85     -0.00026388
86      0.00073241
Ene=    -10.55976527
Spin= Alpha
Occup=      1.00000000
1      1.00316290
2      0.02838938
3     -0.00408086
4     -0.00016037
5      0.00071508
6      0.00222791
7      0.00037796
8      0.00074600
9     -0.00180092
10     -0.00679988
11     -0.00665948
12     -0.00648699
13      0.00003155
14     -0.00006282
15      0.00013643
16     -0.00085712
17      0.00008386
18      0.00018914
19     -0.00008571
20      0.00175269
21      0.00093522
22      0.00190467
23     -0.00001446
24     -0.00025344
25     -0.00008468
26      0.00009949
27      0.00054647
28     -0.00090711
29      0.00004432
30     -0.00005705
31     -0.00046968
32     -0.00001991
33     -0.00026485
34      0.00162013
35      0.00011472
36      0.00005877
37     -0.00007084
38     -0.00002623
39      0.00004492
40     -0.00008634
41     -0.00026674
42      0.00001851
43     -0.00007278
44      0.00015596
45      0.00013950
46      0.00015685
47     -0.00085970
48      0.00000079
49     -0.00017936
50     -0.00014046
51      0.00101378
52     -0.00554938
53     -0.00018609
54     -0.00012926
55      0.00011952
56      0.00034572
57      0.00079028
58      0.00080027
59     -0.00068398
60     -0.00044083
61     -0.00008353
62      0.00005290
63      0.00003995
64      0.00017194
65     -0.00008528
66     -0.00003497
67      0.00006426
68      0.00037117
69     -0.00037428
70     -0.00082427
71     -0.00006398
72     -0.00003054
73     -0.00004935
74      0.00018876
75     -0.00032767
76     -0.00013718
77      0.00036149
78      0.00074531
79     -0.00311606
80      0.00019343
81     -0.00010796
82      0.00012737
83      0.00021551
84     -0.00050308
85      0.00046690
86     -0.00054631
Ene=     -1.23960741
Spin= Alpha
Occup=      1.00000000
1      0.01226113
2     -0.23099266
3      0.11870898
4      0.00146158
5     -0.02987228
6     -0.13545203
7      0.02922652
8      0.01317125
9      0.03094818
10      0.00921862
11      0.00889651
12     -0.02080509
13      0.00049837
14      0.00110273
15     -0.00312588
16      0.03886932
17      0.00634234
18      0.00300088
19      0.00320064
20      0.00707927
21      0.00706862
22      0.02071430
23      0.00765196
24      0.00590034
25     -0.01276472
26      0.02322415
27     -0.80013328
28      0.14733103
29     -0.02587572
30      0.13141699
31      0.00671214
32      0.02979092
33     -0.06144774
34      0.07464431
35      0.00746193
36      0.00899742
37     -0.00076311
38      0.00082701
39     -0.00399131
40      0.00233809
41     -0.00488470
42      0.00944033
43     -0.00194761
44      0.02543974
45      0.06454889
46      0.04901936
47      0.04879316
48     -0.00421087
49      0.02181973
50     -0.02378145
51     -0.05370167
52     -0.03132892
53      0.00269537
54     -0.00001625
55     -0.00538523
56     -0.00732334
57      0.01099511
58      0.00252517
59     -0.00644437
60     -0.38408262
61      0.03943743
62      0.02321921
63     -0.00901293
64      0.01941771
65     -0.01377306
66      0.03598294
67     -0.02215811
68      0.03107365
69     -0.24915150
70      0.10568259
71     -0.02453235
72     -0.01095898
73      0.00568131
74      0.00157492
75     -0.00797352
76     -0.00634023
77      0.00125761
78     -0.03681923
79      0.00796061
80     -0.00323514
81      0.00062238
82     -0.00350871
83      0.00391052
84     -0.00693427
85      0.00282094
86      0.00570168
Ene=     -0.95425855
Spin= Alpha
Occup=      1.00000000
1      0.02081265
2     -0.66700696
3      0.40154026
4     -0.02783070
5     -0.14044627
6     -0.01624578
7      0.05913182
8      0.11230577
9     -0.07929248
10      0.00892926
11      0.01020807
12     -0.00668934
13     -0.00117779
14      0.00295122
15     -0.00466496
16      0.01179997
17      0.00861315
18      0.01238658
19     -0.02184380
20      0.06955051
21      0.04209271
22      0.07726813
23      0.00440348
24     -0.02617250
25     -0.01785280
26     -0.00299982
27      0.13677727
28     -0.07204329
29      0.09404941
30     -0.11253926
31      0.43717170
32     -0.04516011
33      0.03886565
34     -0.08269247
35      0.00319366
36      0.00232429
37     -0.01258035
38     -0.00304793
39      0.00531200
40     -0.00764079
41      0.00966491
42     -0.00499582
43     -0.00686102
44     -0.01082037
45     -0.02008398
46     -0.00792575
47     -0.03961152
48      0.00768187
49     -0.02249047
50      0.00751206
51     -0.35225325
52     -0.15155475
53      0.01748339
54      0.00472957
55     -0.01178431
56     -0.01235796
57      0.06747888
58      0.03825778
59     -0.04479002
60      0.38765547
61     -0.10384082
62     -0.01897911
63      0.00976921
64     -0.00843862
65      0.00674925
66     -0.02171942
67      0.01368275
68     -0.01264895
69      0.10824418
70     -0.08846393
71      0.01169747
72      0.00298122
73      0.00488353
74      0.01066669
75     -0.00772718
76     -0.00313502
77      0.01113171
78     -0.24074281
79      0.02629708
80     -0.01654127
81      0.00363899
82     -0.01036492
83     -0.00713582
84     -0.01723977
85      0.00832403
86     -0.01750818
Ene=     -0.81923388
Spin= Alpha
Occup=      1.00000000
1     -0.00508498
2      0.18149490
3     -0.11667800
4      0.19231068
5      0.06839775
6     -0.26148197
7     -0.10170977
8     -0.04029799
9      0.10929950
10      0.00385468
11      0.00346430
12     -0.01771317
13      0.00350006
14      0.01622858
15     -0.00401665
16      0.01036385
17     -0.01369768
18     -0.00287205
19      0.01812741
20     -0.01884785
21     -0.00838378
22     -0.01379394
23     -0.02639800
24      0.01275976
25      0.01581100
26     -0.00106864
27     -0.06487747
28     -0.06726007
29      0.61644189
30      0.04746064
31      0.27387173
32     -0.10936724
33      0.01373964
34     -0.07816562
35     -0.00094531
36     -0.00179299
37      0.00415911
38     -0.01476365
39      0.00643686
40     -0.00669782
41     -0.07024631
42      0.00681203
43      0.00569627
44      0.01253165
45     -0.00398254
46      0.00070216
47      0.00056739
48      0.01539784
49     -0.03591540
50      0.01067699
51      0.34399099
52     -0.01989322
53     -0.01402103
54     -0.00763840
55      0.00689592
56      0.01383387
57     -0.01779721
58     -0.00297190
59      0.02326663
60      0.50731553
61     -0.15741574
62     -0.00725054
63      0.01584276
64     -0.01556983
65      0.00401667
66     -0.00648079
67      0.00509104
68     -0.01126223
69     -0.40608336
70      0.18556770
71     -0.01278433
72     -0.01484318
73      0.01533727
74     -0.00796679
75      0.00592963
76     -0.00050178
77     -0.01267686
78      0.08757559
79     -0.02801453
80      0.00810219
81     -0.00023287
82     -0.00161394
83      0.00037994
84      0.01075966
85     -0.00508085
86      0.00100305
Ene=     -0.76051945
Spin= Alpha
Occup=      1.00000000
1      0.00644006
2     -0.14480230
3      0.11860121
4      0.05944822
5     -0.04509180
6      0.47055973
7      0.03834143
8      0.05291141
9     -0.22206850
10     -0.01233498
11     -0.00376516
12      0.02251064
13     -0.00012032
14      0.01269574
15      0.01937615
16      0.02218846
17      0.01383386
18      0.00338752
19     -0.01446907
20      0.03283563
21      0.02490257
22     -0.00300006
23      0.00444511
24     -0.00970066
25     -0.01403231
26      0.00038480
27      0.14028950
28      0.08235768
29      0.37818496
30      0.18474013
31     -0.49768896
32     -0.03750617
33     -0.03604838
34      0.03261349
35     -0.00509451
36     -0.00424078
37      0.00645881
38     -0.00769115
39      0.00140423
40      0.00811386
41     -0.00031032
42      0.00833084
43      0.01179431
44     -0.01496311
45      0.00226104
46     -0.00048813
47     -0.00604237
48      0.00090989
49     -0.00470261
50      0.00843737
51     -0.29699781
52     -0.08231362
53      0.01327444
54      0.00309478
55      0.00061533
56     -0.02149443
57      0.04434321
58      0.01789728
59     -0.03851857
60     -0.05949262
61      0.02690083
62      0.01523948
63      0.00452311
64     -0.00752543
65     -0.00077718
66      0.00352349
67      0.00162700
68      0.00841618
69     -0.43065571
70      0.17012963
71     -0.02034010
72     -0.01224263
73     -0.00086154
74      0.01297296
75     -0.00021682
76      0.00259004
77      0.00125227
78     -0.29780232
79      0.08485082
80     -0.01495636
81      0.00540608
82     -0.00280810
83     -0.00132928
84     -0.00822821
85     -0.00064777
86     -0.01338180
Ene=     -0.61861031
Spin= Alpha
Occup=      1.00000000
1      0.00062483
2      0.00763166
3      0.17365825
4     -0.68321002
5      0.06740820
6     -0.02833041
7      0.16432845
8      0.02807958
9     -0.01596903
10      0.00090647
11      0.00244371
12     -0.00303062
13     -0.01727059
14      0.01602459
15      0.00624881
16      0.07406118
17      0.00774233
18      0.01135603
19     -0.00605913
20      0.02301560
21      0.00901601
22      0.03081289
23      0.00805051
24     -0.04179670
25     -0.01031294
26     -0.00148400
27      0.03951109
28     -0.01860465
29      0.16849314
30      0.18690663
31      0.04103535
32     -0.04399615
33     -0.00262864
34      0.00273576
35     -0.00112544
36     -0.00406531
37      0.00327332
38     -0.00453577
39      0.01742828
40     -0.00287702
41     -0.03132296
42     -0.00352507
43      0.00447751
44      0.00623166
45     -0.00207995
46     -0.01222470
47     -0.01137165
48      0.00649165
49      0.01059850
50     -0.00253519
51     -0.46449738
52     -0.06065101
53     -0.00212162
54      0.00972604
55     -0.01353158
56     -0.02643324
57      0.03776823
58      0.02543429
59     -0.02856139
60      0.13519590
61      0.03564241
62      0.00278268
63      0.00650683
64     -0.00333390
65      0.00118155
66     -0.01862724
67      0.00611359
68     -0.02356250
69     -0.23305865
70     -0.00171160
71     -0.00938952
72     -0.00467385
73      0.00346279
74      0.00207356
75     -0.02353284
76     -0.00691604
77      0.01816996
78      0.55791541
79     -0.13536853
80      0.00649930
81     -0.00833291
82      0.01463905
83      0.00345854
84      0.01006606
85     -0.00789164
86      0.00928744
Ene=     -0.62223016
Spin= Alpha
Occup=      1.00000000
1      0.00253736
2     -0.18319095
3      0.01322773
4      0.14641159
5      0.28036656
6     -0.12649790
7     -0.02809737
8     -0.05623423
9      0.07033918
10      0.00636959
11      0.00393657
12     -0.00778140
13      0.00159091
14     -0.00643769
15      0.01858205
16      0.04134263
17      0.00088259
18     -0.00301561
19      0.01017964
20      0.00253409
21      0.01342097
22      0.03428585
23     -0.00191934
24      0.01909216
25     -0.00836634
26     -0.00303676
27      0.28977712
28      0.03655271
29     -0.20707438
30      0.79519894
31      0.16990637
32      0.02372703
33     -0.02594335
34      0.01544464
35     -0.00384802
36     -0.00461233
37     -0.00623414
38     -0.00032588
39     -0.00652008
40     -0.00071830
41     -0.10405030
42     -0.00250797
43      0.04131922
44      0.03013984
45     -0.03098713
46     -0.05075340
47     -0.03073301
48     -0.00534884
49      0.00538255
50     -0.01705515
51      0.16436330
52     -0.01593339
53     -0.00465639
54      0.00275673
55      0.00221138
56      0.00159647
57     -0.00677092
58     -0.00987675
59      0.01301314
60     -0.19763464
61      0.12391930
62      0.00558468
63      0.01220807
64      0.01121708
65     -0.00198155
66     -0.00102542
67     -0.00073641
68     -0.01282685
69     -0.03636230
70      0.09225609
71     -0.00701897
72      0.01128562
73      0.00395257
74      0.00170188
75      0.01484139
76      0.00872052
77     -0.01361563
78     -0.06650339
79     -0.00708773
80      0.00273653
81      0.00456089
82     -0.00255331
83     -0.00061829
84     -0.00935880
85      0.00216479
86      0.00561235
Ene=     -0.40407519
Spin= Alpha
Occup=      1.00000000
1      0.00220506
2     -0.31777939
3     -0.05383284
4      0.01872486
5      0.87307246
6      0.06206382
7     -0.01103016
8      0.00394433
9     -0.12148230
10      0.00506671
11     -0.00834815
12      0.01437151
13     -0.00127505
14      0.00065347
15     -0.00002575
16      0.02159683
17     -0.00503816
18      0.04066617
19      0.00034373
20      0.06164332
21      0.04266977
22      0.00310829
23     -0.00728405
24      0.00942770
25     -0.00099025
26      0.00011505
27     -0.04165226
28      0.01171464
29      0.05012244
30     -0.39398098
31     -0.19271791
32      0.00272220
33     -0.00320155
34     -0.04827285
35      0.00371314
36     -0.00143383
37      0.00091972
38      0.00112967
39      0.00133438
40     -0.02133550
41     -0.07725578
42      0.00792729
43     -0.02595967
44      0.00594881
45     -0.00075820
46      0.00097396
47      0.01721645
48      0.00062041
49      0.00147574
50     -0.01113598
51      0.13508479
52     -0.14609814
53     -0.00706457
54      0.01847089
55      0.00525743
56      0.00002459
57      0.00788259
58      0.01009039
59     -0.02554963
60      0.08236862
61     -0.00830429
62     -0.00206259
63     -0.01065485
64     -0.00682499
65      0.00112785
66     -0.00397418
67     -0.00202467
68     -0.00826911
69      0.11031499
70      0.01236410
71      0.00738400
72     -0.00327527
73     -0.00173187
74      0.00685038
75      0.01284594
76      0.00565841
77     -0.00777972
78      0.13428157
79     -0.13810614
80      0.00551003
81      0.01464702
82      0.00351948
83     -0.00419470
84     -0.01772205
85      0.01371988
86     -0.02490635
Ene=     -0.22018731
Spin= Alpha
Occup=      0.00000000
1     -0.00324876
2      0.00516203
3     -0.16440115
4      0.02705000
5      0.05088647
6      0.15384832
7     -0.01087463
8     -0.03331612
9      0.03812576
10      0.01229185
11      0.01199226
12     -0.02023799
13      0.00344591
14      0.01084540
15      0.00634267
16      0.11634079
17     -0.07267161
18      0.02544473
19      0.11711355
20     -0.01682048
21     -0.01476320
22     -0.04192048
23      0.01083434
24     -0.00247088
25     -0.00229097
26     -0.00749970
27     -0.41948649
28     -0.22511520
29      0.26868057
30      0.26377488
31     -0.08807822
32      0.04989775
33      0.02016647
34      0.00744012
35      0.01631243
36      0.00179196
37      0.00352002
38      0.00933188
39     -0.00678162
40     -0.00438169
41     -0.03199806
42      0.09976696
43     -0.03519868
44      0.04531945
45      0.06416640
46      0.03320646
47      0.04394281
48      0.01633476
49     -0.00432572
50     -0.02128872
51     -0.08091415
52      0.12671963
53      0.00405382
54      0.00317919
55      0.00530477
56      0.09966773
57     -0.01926789
58     -0.01069628
59      0.05677213
60      0.04559772
61     -0.01931054
62      0.01965730
63     -0.00128492
64      0.01079800
65      0.01826232
66      0.04621211
67     -0.02219557
68      0.04480209
69      0.42471563
70      0.28924826
71     -0.02943013
72     -0.01997431
73      0.01025986
74      0.35464802
75     -0.07519611
76     -0.06620481
77      0.04062377
78     -0.02583262
79      0.08353019
80     -0.00698846
81      0.00397367
82      0.00348420
83     -0.06702354
84     -0.00143286
85     -0.00942367
86      0.04231542
Ene=     -0.18050114
Spin= Alpha
Occup=      0.00000000
1     -0.00879399
2     -0.47067526
3     -0.34911981
4      0.18253083
5     -0.19155361
6     -0.26569780
7      0.02073135
8     -0.03168574
9     -0.04522481
10     -0.00088226
11     -0.01163309
12      0.03014937
13      0.00010904
14      0.02554078
15     -0.00287644
16     -0.39124061
17     -0.03204480
18     -0.06197357
19     -0.10946479
20     -0.00182049
21     -0.02503787
22      0.01303008
23      0.00782136
24      0.01898996
25     -0.00433618
26      0.00432698
27      0.27355495
28      0.19336279
29      0.32366265
30      0.00203889
31     -0.23363371
32      0.05657030
33     -0.00595175
34     -0.04514526
35      0.01388632
36      0.00972919
37     -0.03815400
38      0.01261912
39     -0.02182120
40      0.00566160
41      0.27795552
42      0.11862764
43      0.00666256
44     -0.21736462
45      0.00372291
46      0.00774272
47     -0.07726932
48      0.01516124
49     -0.03207275
50      0.00426895
51      0.01231081
52      0.07916594
53      0.00321081
54     -0.00519097
55     -0.01321078
56      0.15449819
57     -0.01424966
58     -0.01553274
59     -0.02778875
60     -0.30666474
61     -0.18780060
62     -0.00198775
63      0.01014305
64     -0.02858898
65     -0.40599002
66     -0.01747580
67      0.04381480
68     -0.10453025
69      0.28316859
70      0.20022489
71     -0.00792503
72     -0.00898482
73     -0.00546402
74      0.31261064
75     -0.04466882
76     -0.02915536
77     -0.01305178
78      0.29418387
79      0.18848105
80     -0.00831091
81      0.00151766
82     -0.02077057
83      0.21534288
84     -0.02508808
85     -0.00314887
86     -0.06854585
Ene=     -0.14465072
Spin= Alpha
Occup=      0.00000000
1      0.00619803
2      0.29329981
3      0.22600726
4     -0.04352960
5      0.13106565
6     -0.09300160
7     -0.09256179
8      0.01947950
9      0.00657642
10     -0.00500813
11      0.00037148
12     -0.00892109
13      0.00807761
14      0.00709780
15      0.00396021
16      0.25487125
17     -0.19520139
18      0.01779051
19     -0.10108995
20     -0.01370350
21     -0.00164598
22     -0.00556600
23      0.01665195
24     -0.00484168
25     -0.00345715
26      0.00119704
27      0.00973798
28      0.03033784
29      0.35207817
30      0.05716608
31      0.12487051
32      0.06218961
33      0.00312851
34      0.01816933
35     -0.00075087
36     -0.00486388
37      0.00598548
38      0.01139557
39     -0.00819820
40     -0.00257914
41     -0.03318312
42      0.13899419
43      0.00523736
44      0.11215049
45      0.00354025
46     -0.00929443
47      0.01467720
48      0.02243774
49     -0.02721672
50     -0.00824197
51     -0.00754664
52     -0.02108747
53     -0.01533120
54     -0.00466247
55      0.00911486
56     -0.19010636
57     -0.04868324
58     -0.01982501
59      0.05446519
60     -0.07989163
61     -0.26245180
62     -0.01201604
63      0.01476560
64     -0.01024314
65     -0.85241370
66     -0.06917223
67      0.05257311
68     -0.01896681
69      0.24163100
70      0.25581122
71     -0.01009372
72     -0.01080457
73      0.00859222
74      0.69244843
75     -0.06767344
76     -0.05975505
77      0.03131291
78     -0.10542807
79     -0.23535605
80      0.01010470
81     -0.00581227
82      0.00919294
83     -0.62942688
84     -0.00127381
85     -0.03057421
86      0.02235591
Ene=     -0.11492050
Spin= Alpha
Occup=      0.00000000
1      0.00966106
2      0.18175998
3      0.50376574
4      0.23881793
5     -0.08668655
6      0.36297879
7      0.10700837
8      0.05309921
9      0.05932290
10      0.01746868
11      0.00931663
12     -0.02885381
13     -0.00618215
14      0.01055642
15     -0.01044541
16      1.64281904
17      0.31729488
18      0.33518966
19      0.90926427
20      0.10565914
21      0.09743067
22      0.08686051
23     -0.01209774
24      0.01907122
25     -0.03858504
26     -0.00428315
27     -0.15291436
28     -0.27600461
29     -0.00708106
30     -0.16324784
31      0.32997381
32     -0.03173046
33      0.02793654
34      0.05133201
35     -0.00745993
36     -0.00415185
37      0.01985336
38     -0.00682173
39     -0.00865692
40      0.00971110
41     -1.78447207
42     -0.30128302
43      0.40414610
44      0.67222193
45     -0.04378063
46     -0.01753580
47      0.02897785
48     -0.01102141
49     -0.02065344
50      0.01602971
51     -0.08785388
52     -0.38670979
53      0.00733956
54      0.00209343
55      0.01588351
56     -0.58515833
57      0.05859937
58      0.02886835
59      0.01760757
60      0.01466431
61      0.23799673
62     -0.01814745
63      0.01168116
64      0.00092169
65     -0.66323626
66     -0.05820066
67      0.06354222
68     -0.09585893
69     -0.10439495
70      0.06862754
71      0.00221392
72      0.01180333
73      0.00787439
74     -0.15359384
75      0.01506953
76      0.11322879
77     -0.03487590
78      0.03549603
79      0.01372186
80     -0.01689944
81      0.01293673
82      0.00374832
83      1.17308804
84     -0.09554021
85      0.06521823
86      0.02783283
Ene=     -0.10178785
Spin= Alpha
Occup=      0.00000000
1      0.00439236
2      0.00476857
3      0.14546740
4      0.36289495
5     -0.00308239
6     -0.01659797
7      0.24581367
8      0.03151093
9     -0.13498553
10     -0.01088883
11     -0.00922243
12      0.01653901
13     -0.01588153
14      0.02322634
15      0.00468345
16     -0.76760593
17      0.71261658
18      0.01326160
19     -1.01637484
20      0.01972362
21      0.00163023
22      0.05198220
23     -0.01341385
24      0.00394692
25     -0.01747482
26      0.00118729
27      0.07900710
28      0.11838885
29     -0.14211687
30      0.03416388
31     -0.16180176
32     -0.04671154
33     -0.01682879
34     -0.03489803
35     -0.00796420
36     -0.00164794
37      0.00539531
38     -0.01149134
39     -0.01150791
40      0.00021779
41      1.20642585
42     -0.44032986
43     -0.31170142
44     -0.13275823
45     -0.01132540
46     -0.01445074
47      0.01636088
48     -0.02560953
49     -0.00683671
50     -0.00090018
51     -0.07020494
52     -0.62646651
53     -0.01107416
54     -0.01372787
55      0.00533925
56     -2.41639770
57      0.01703285
58     -0.00807014
59     -0.05244629
60     -0.01672659
61      0.05139947
62     -0.00073679
63     -0.01113751
64      0.00878196
65      0.95189675
66     -0.00474130
67     -0.07620491
68      0.07994085
69     -0.14305779
70     -0.40647975
71      0.00135757
72      0.00341120
73      0.01239494
74      0.20335128
75      0.02886765
76      0.03115965
77      0.10122920
78      0.22091017
79      0.34387368
80     -0.00338295
81      0.00330555
82     -0.01406818
83      1.30488201
84     -0.03088183
85      0.02267655
86     -0.03100885
Ene=     -0.08406132
Spin= Alpha
Occup=      0.00000000
1      0.02345142
2      0.03437702
3      0.63565095
4     -0.10684850
5     -0.21408073
6     -0.16915893
7     -0.09562881
8      0.06423430
9     -0.30789086
10     -0.01367697
11     -0.01649933
12      0.03700227
13      0.00356266
14      0.00244206
15     -0.00253411
16      0.57781177
17     -0.13909711
18      0.78067447
19     -0.89187005
20      0.19956140
21      0.16219647
22      0.23907833
23      0.00651892
24      0.01775675
25     -0.10176260
26      0.00086887
27      0.07237618
28      0.06731438
29      0.13018731
30     -0.13619894
31     -0.27532658
32      0.01951512
33      0.00672072
34     -0.08857394
35      0.00144489
36      0.00462323
37     -0.01086820
38      0.00760874
39     -0.00575342
40      0.01243994
41     -0.34037184
42      0.05954005
43      0.32404301
44      0.69646782
45     -0.01109301
46     -0.01522058
47      0.01832072
48      0.02541256
49     -0.00643325
50      0.00036504
51      0.02144608
52     -0.46133060
53     -0.00311086
54     -0.00232601
55     -0.01203329
56      0.00550951
57      0.07888307
58      0.01268379
59     -0.05198660
60     -0.12428373
61      0.03814962
62      0.00127295
63      0.00626473
64     -0.00155093
65      0.49637201
66     -0.02149076
67      0.07273041
68     -0.06211367
69      0.08832390
70      0.18723497
71     -0.00035366
72      0.00183083
73      0.00533860
74      0.52110295
75     -0.03337054
76     -0.00727273
77      0.05582761
78      0.02797538
79     -0.67175750
80      0.00801465
81     -0.00437113
82     -0.00757018
83     -1.26391122
84     -0.08108240
85      0.01647798
86     -0.12721823
Ene=     -0.07734863
Spin= Alpha
Occup=      0.00000000
1     -0.01369594
2     -0.09707978
3      0.07852141
4      0.21845556
5     -0.07950065
6     -0.16348249
7      0.07510563
8      0.04247484
9     -0.00511454
10      0.00764579