[Molden Format]
[Atoms] AU
C  1 6   0.13860484  -0.22876667  -0.24894602
N  2 7  -0.04303406   0.13658869   2.75574495
H  3 1   1.67528813  -0.36666830  -1.55995980
H  4 1   1.16360574   0.97415822   3.76670762
H  5 1  -2.16852160  -0.95071444   3.23036291
H  6 1  -1.66135181   1.34067364  -1.23511644
[GTO]
1
s 6
    3.047524902344e+03     1.834737136960e-03
    4.573695068359e+02     1.403732318431e-02
    1.039486846924e+02     6.884261965752e-02
    2.921015548706e+01     2.321844398975e-01
    9.286663055420e+00     4.679413437843e-01
    3.163927078247e+00     3.623119890690e-01
s 3
    7.868272304535e+00    -1.193324178457e-01
    1.881288528442e+00    -1.608541458845e-01
    5.442492365837e-01     1.143456459045e+00
p 3
    7.868272304535e+00     6.899906694889e-02
    1.881288528442e+00     3.164239525795e-01
    5.442492365837e-01     7.443082928658e-01
s 1
    1.687144786119e-01     1.000000000000e+00
p 1
    1.687144786119e-01     1.000000000000e+00

2
s 6
    4.173511230469e+03     1.834772177972e-03
    6.274578857422e+02     1.399462670088e-02
    1.429020996094e+02     6.858655065298e-02
    4.023432922363e+01     2.322408705950e-01
    1.282021331787e+01     4.690699577332e-01
    4.390437126160e+00     3.604551851749e-01
s 3
    1.162636184692e+01    -1.149611845613e-01
    2.716279745102e+00    -1.691174805164e-01
    7.722184062004e-01     1.145851969719e+00
p 3
    1.162636184692e+01     6.757974624634e-02
    2.716279745102e+00     3.239072859287e-01
    7.722184062004e-01     7.408951520920e-01
s 1
    2.120314985514e-01     1.000000000000e+00
p 1
    2.120314985514e-01     1.000000000000e+00

3
s 3
    1.873113632202e+01     3.349460288882e-02
    2.825394392014e+00     2.347269505262e-01
    6.401216983795e-01     8.137573003769e-01
s 1
    1.612777560949e-01     1.000000000000e+00

4
s 3
    1.873113632202e+01     3.349460288882e-02
    2.825394392014e+00     2.347269505262e-01
    6.401216983795e-01     8.137573003769e-01
s 1
    1.612777560949e-01     1.000000000000e+00

5
s 3
    1.873113632202e+01     3.349460288882e-02
    2.825394392014e+00     2.347269505262e-01
    6.401216983795e-01     8.137573003769e-01
s 1
    1.612777560949e-01     1.000000000000e+00

6
s 3
    1.873113632202e+01     3.349460288882e-02
    2.825394392014e+00     2.347269505262e-01
    6.401216983795e-01     8.137573003769e-01
s 1
    1.612777560949e-01     1.000000000000e+00

[MO]
Ene=    -14.79004678
Spin= Alpha
Occup=      1.00000000
1     -0.00002783
2     -0.00050317
3      0.00001744
4     -0.00002128
5      0.00010360
6      0.00403379
7     -0.00047555
8      0.00043840
9      0.00315052
10      0.99535802
11      0.02961699
12      0.00027265
13      0.00024877
14     -0.00013782
15     -0.01692489
16     -0.00009845
17      0.00009968
18      0.00204753
19     -0.00006067
20      0.00051341
21     -0.00092531
22      0.00363110
23      0.00041755
24      0.00172848
25     -0.00033764
26      0.00017538
Ene=    -10.56654612
Spin= Alpha
Occup=      1.00000000
1      0.99539958
2      0.03161429
3      0.00041297
4      0.00090904
5      0.00060156
6     -0.01823210
7     -0.00039985
8     -0.00151284
9     -0.00003381
10      0.00002103
11     -0.00016013
12     -0.00013030
13     -0.00002832
14      0.00032425
15      0.00217053
16      0.00079858
17      0.00038588
18     -0.00130211
19     -0.00103926
20      0.00467890
21     -0.00045654
22      0.00039780
23     -0.00002727
24      0.00106359
25     -0.00009117
26      0.00316064
Ene=     -1.19898114
Spin= Alpha
Occup=      1.00000000
1      0.05804978
2     -0.11703109
3     -0.00016038
4     -0.01797601
5     -0.07861455
6     -0.04684222
7     -0.00666472
8     -0.00592266
9      0.01966874
10      0.20550024
11     -0.44651339
12     -0.05434469
13     -0.03354155
14     -0.01042398
15     -0.46842859
16      0.00413151
17      0.00568329
18      0.02973858
19     -0.01906844
20      0.00957827
21     -0.17934037
22     -0.00221788
23     -0.07015836
24      0.00240895
25     -0.01769999
26      0.00112397
Ene=     -0.92861407
Spin= Alpha
Occup=      1.00000000
1     -0.17231361
2      0.35181523
3      0.04262914
4      0.04827578
5      0.00598565
6      0.33224890
7      0.00636702
8      0.03869329
9     -0.00526424
10      0.03397828
11     -0.08458472
12     -0.10921162
13     -0.10529744
14     -0.27878279
15     -0.08401979
16     -0.05063779
17     -0.05232332
18     -0.12628168
19      0.15215952
20      0.03582306
21     -0.18014173
22     -0.02734372
23      0.00751074
24      0.00008330
25      0.08869754
26      0.02487479
Ene=     -0.82884388
Spin= Alpha
Occup=      1.00000000
1     -0.06541145
2      0.13423005
3      0.12691322
4      0.02238623
5     -0.14651091
6      0.17665777
7      0.03345989
8      0.01460810
9     -0.02696169
10      0.03519192
11     -0.06825548
12      0.36313462
13      0.22194201
14      0.11302041
15     -0.15341322
16      0.21569529
17      0.13023344
18      0.06920422
19      0.14472432
20      0.05439696
21      0.19494827
22      0.03432583
23     -0.19167868
24     -0.07870065
25      0.03143843
26      0.00971431
Ene=     -0.72202790
Spin= Alpha
Occup=      1.00000000
1     -0.02191304
2      0.03962333
3      0.10215824
4     -0.03900544
5     -0.32790848
6      0.09445834
7      0.04130769
8     -0.00441373
9     -0.09436901
10      0.00453419
11     -0.01225447
12     -0.22985903
13     -0.06334873
14      0.39076058
15     -0.02755251
16     -0.16732238
17     -0.05294620
18      0.24035183
19      0.18682397
20      0.09277984
21      0.02337206
22      0.02168292
23      0.17291930
24      0.10499304
25      0.03274088
26      0.02343603
Ene=     -0.64837222
Spin= Alpha
Occup=      1.00000000
1     -0.01326974
2      0.00633736
3     -0.35302887
4      0.21881894
5     -0.08049713
6      0.10412865
7     -0.20319349
8      0.13195283
9     -0.00924338
10      0.01615752
11     -0.03196727
12     -0.06594839
13      0.19351819
14      0.08036348
15     -0.10097226
16     -0.04584146
17      0.12362312
18      0.07107716
19     -0.14329600
20     -0.07394958
21      0.05119473
22      0.02354981
23     -0.01268439
24     -0.00791212
25      0.25903649
26      0.21173037
Ene=     -0.53329799
Spin= Alpha
Occup=      1.00000000
1     -0.02265333
2      0.04198279
3     -0.19089916
4     -0.07420837
5     -0.01680104
6      0.10798008
7     -0.12437519
8     -0.02790572
9      0.00163304
10      0.01144764
11     -0.02318867
12      0.32186538
13     -0.52237577
14      0.14653839
15     -0.07558555
16      0.21246380
17     -0.34919645
18      0.10657024
19     -0.08088999
20     -0.05499659
21      0.03611785
22      0.02311038
23     -0.01393672
24     -0.00750366
25      0.11022816
26      0.10302218
Ene=     -0.39878976
Spin= Alpha
Occup=      1.00000000
1     -0.06183391
2      0.14665977
3     -0.26272139
4     -0.53881636
5      0.00291747
6      0.22861912
7     -0.20142641
8     -0.39181990
9      0.02196473
10      0.01630116
11     -0.03425404
12     -0.06477505
13      0.21720138
14      0.02480465
15     -0.11264490
16     -0.06177709
17      0.15494759
18      0.01242448
19     -0.03892855
20     -0.01779048
21      0.06717624
22      0.06542700
23     -0.04629658
24     -0.04371390
25     -0.06705082
26     -0.08981893
Ene=     -0.25371343
Spin= Alpha
Occup=      0.00000000
1      0.01956786
2     -0.02002136
3     -0.04496743
4     -0.01352522
5     -0.11491553
6     -0.15594455
7     -0.04472265
8      0.00198406
9     -0.15818978
10     -0.10583949
11      0.23551864
12     -0.23505091
13     -0.12855865
14      0.06473876
15      0.91435540
16     -0.29437300
17     -0.16214441
18      0.09460380
19      0.04685714
20      0.06333465
21     -0.11181910
22     -0.31827407
23     -0.31929312
24     -1.01291044
25      0.01264158
26     -0.02089441
Ene=     -0.17113421
Spin= Alpha
Occup=      0.00000000
1      0.13816651
2     -0.25093706
3     -0.00543550
4     -0.17176690
5     -0.30659731
6     -1.25807335
7     -0.04275174
8     -0.28810494
9     -0.48131832
10     -0.06597761
11      0.13641923
12      0.18129490
13      0.05003256
14     -0.35678967
15      0.68355207
16      0.27950283
17      0.08294024
18     -0.60654641
19      0.11537911
20      0.42380323
21     -0.03665718
22     -0.26692700
23      0.07570410
24      0.31756976
25      0.10181531
26      0.51629676
Ene=     -0.14048870
Spin= Alpha
Occup=      0.00000000
1     -0.03675014
2      0.08219370
3     -0.29944743
4      0.23141661
5     -0.30294483
6      0.32351421
7     -0.49357136
8      0.37276441
9     -0.59091734
10     -0.02140441
11      0.05173884
12      0.12281350
13     -0.01801296
14     -0.13099797
15      0.25001518
16      0.18490523
17     -0.06739729
18     -0.25235812
19      0.03525502
20     -0.03171552
21      0.02560054
22     -0.08205859
23      0.06302238
24      0.17882079
25     -0.21778494
26     -1.16645962
Ene=     -0.07556559
Spin= Alpha
Occup=      0.00000000
1      0.04967182
2     -0.10383335
3     -0.13470051
4      0.01585677
5      0.00754222
6     -0.68963688
7     -0.25427146
8      0.07467597
9      0.08400959
10      0.04259541
11     -0.08726411
12     -0.22665844
13     -0.18650472
14     -0.21534201
15     -0.85567859
16     -0.54968229
17     -0.41657437
18     -0.47936210
19      0.08209578
20      0.77650215
21      0.13642214
22      1.77258029
23     -0.04640989
24     -0.37848086
25     -0.02300699
26     -0.03489673
Ene=     -0.00554286
Spin= Alpha
Occup=      0.00000000
1     -0.02811993
2      0.06777261
3      0.27573140
4     -0.09458006
5     -0.34555383
6      0.70688998
7      0.85887806
8     -0.16053211
9     -1.09270860
10     -0.01246791
11      0.00038954
12     -0.11876397
13     -0.06115931
14     -0.21172623
15      0.14695456
16     -0.29852736
17     -0.19004210
18     -0.58186081
19     -0.09743657
20     -2.02767701
21     -0.00059123
22      0.82457785
23      0.03664166
24     -0.09754734
25      0.03876380
26      0.17683996
Ene=      0.33050322
Spin= Alpha
Occup=      0.00000000
1     -0.00586815
2     -0.28672757
3     -0.55287237
4     -0.44987085
5     -0.64835777
6      0.74468542
7      0.58457597
8      0.50614272
9      1.19116267
10     -0.00906964
11      0.03168487
12      0.00450967
13     -0.01178844
14     -0.10094024
15     -0.47892752
16      0.13110224
17      0.18003065
18      0.67521578
19     -0.09540018
20      0.11293919
21     -0.35766563
22     -0.22171922
23     -0.10827183
24      0.15585214
25      0.05130853
26      0.04344705
Ene=      0.35291345
Spin= Alpha
Occup=      0.00000000
1      0.01518981
2     -0.39692961
3      0.09134177
4      0.78644667
5     -0.42821766
6      0.50742366
7     -0.17666560
8     -0.89286038
9      0.88487851
10     -0.00699005
11      0.05657767
12     -0.22250152
13      0.15781031
14     -0.09614078
15     -0.43503149
16      0.37712730
17      0.12168697
18      0.45914015
19     -0.06000731
20      0.23760490
21     -0.16948387
22     -0.16610023
23     -0.35114830
24      0.33968105
25      0.02252479
26      0.20234415
Ene=      0.36607743
Spin= Alpha
Occup=      0.00000000
1     -0.00868155
2     -0.12436968
3     -0.50058252
4      0.13863447
5      0.38031241
6      0.20561073
7      1.14760768
8     -0.24711433
9     -1.38788642
10     -0.00503743
11     -0.11340238
12     -0.30169370
13      0.38467031
14      0.06652992
15      0.78910734
16      0.27997505
17     -0.39123837
18     -0.45280534
19     -0.49181278
20     -0.68641163
21     -0.12139508
22      0.09089405
23      0.26660650
24     -0.03963321
25      0.06398887
26      0.12387705
Ene=      0.43216935
Spin= Alpha
Occup=      0.00000000
1      0.00475876
2      0.21479530
3      0.06329607
4     -0.01427505
5     -0.32020286
6     -0.40258763
7     -0.37190727
8      0.19787917
9      0.95380680
10      0.02080059
11      0.05872748
12     -0.01316420
13      0.55147475
14     -0.08371668
15     -0.49898974
16     -0.33647047
17     -0.88459631
18      0.04910677
19      0.28853265
20      0.46661091
21      0.45302364
22      0.17528054
23      0.55220787
24     -0.92744961
25      0.39937627
26     -0.22965666
Ene=      0.45587251
Spin= Alpha
Occup=      0.00000000
1      0.00569735
2      0.06989562
3      0.23280565
4     -0.32247095
5      0.34011148
6      0.40530460
7     -0.65314201
8      0.69189150
9     -0.15038599
10     -0.00989511
11      0.05666080
12     -0.17064623
13      0.38126933
14     -0.47661865
15     -0.06881683
16      0.49772356
17     -0.40888985
18      0.94837737
19      0.15877881
20      0.12983260
21     -0.26258447
22     -0.22010399
23     -0.57120132
24      0.61315741
25      0.21797104
26     -0.67245490
Ene=      0.50326341
Spin= Alpha
Occup=      0.00000000
1     -0.00005235
2     -0.25650099
3      0.30708801
4     -0.32961621
5     -0.17992790
6     -0.21763745
7     -0.74553090
8      0.56940430
9     -0.03713092
10     -0.00870372
11      0.22206018
12     -0.60128907
13      0.05216894
14      0.57290768
15     -0.51614333
16      0.89406393
17     -0.19694548
18     -0.98669136
19     -0.10818394
20      0.47045998
21      0.21124594
22      0.01936536
23     -0.22251227
24      0.74992503
25     -0.08726574
26     -0.40220871
Ene=      0.58000268
Spin= Alpha
Occup=      0.00000000
1      0.00418049
2     -0.95106762
3      0.34818649
4     -0.11748628
5      0.06171271
6      1.85929708
7     -0.59000406
8      0.23245059
9      0.05503928
10      0.00301608
11      0.00104818
12      0.04025525
13     -0.26035070
14     -0.02621672
15     -0.13178317
16      0.13687901
17      0.48519948
18      0.40329541
19     -0.33134880
20      0.21782609
21     -0.11784070
22     -0.25556287
23      0.29515409
24     -0.23599874
25      0.88470723
26     -1.58263300
Ene=      0.62343709
Spin= Alpha
Occup=      0.00000000
1     -0.01791677
2     -0.69352909
3      0.47467686
4     -0.14972109
5     -0.16526636
6      0.86994922
7     -0.77823608
8      0.47978097
9      0.18408123
10      0.00680987
11     -0.37598839
12      0.37340348
13      0.39552404
14      0.08845419
15      0.36396450
16     -0.39484619
17     -0.58346323
18      0.23255348
19     -0.40346495
20      0.48730762
21     -0.46743871
22      0.43946807
23      0.24584445
24     -0.89447858
25     -0.61656557
26     -0.05404308
Ene=      0.70212077
Spin= Alpha
Occup=      0.00000000
1     -0.03383578
2      0.22898452
3      0.25372534
4     -0.08182440
5     -0.23882969
6     -0.03760803
7     -0.48875634
8      0.17473011
9      0.80901096
10      0.02996393
11     -0.23406896
12     -0.38280317
13     -0.27993183
14     -0.59205915
15      0.28019169
16      0.56487177
17      0.39169257
18      1.12130439
19     -0.67692687
20      1.12737566
21      0.71953720
22     -1.44560158
23      0.16892401
24     -0.08219927
25     -0.30251405
26      0.20437604
Ene=      0.77517832
Spin= Alpha
Occup=      0.00000000
1     -0.01570104
2      1.45469552
3      0.31494557
4      0.05308545
5     -0.25803856
6     -2.67466921
7     -0.52422072
8     -0.23335462
9      0.32583593
10     -0.03622605
11      0.43042959
12      0.16122301
13      0.06513819
14      0.15774313
15     -0.37197276
16      0.00985290
17      0.02619829
18     -0.44565114
19     -0.69688013
20      1.72049694
21     -0.55243765
22      0.77923769
23      0.00174430
24      0.16592826
25      0.31114318
26      0.09379423
Ene=      0.85288962
Spin= Alpha
Occup=      0.00000000
1     -0.02852350
2     -0.53608788
3     -0.07372067
4     -0.02883255
5      0.02176316
6      1.36808995
7      0.95069881
8      0.22190686
9     -0.24779779
10     -0.00238890
11      0.99216101
12      0.42945983
13      0.16767349
14     -0.01736008
15     -2.19142922
16     -1.61913213
17     -0.80909240
18     -0.38211335
19     -0.44888183
20     -0.62491060
21      0.67302530
22      1.18178436
23     -0.53179191
24      0.14795982
25     -0.00915988
26     -0.07079840
Ene=      1.04873082
Spin= Alpha
Occup=      0.00000000
1     -0.02958757
2     -0.35672090
3      0.03887142
4      0.00651230
5      0.19113810
6      1.54014500
7     -0.67861193
8      0.14628798
9      1.17431356
10     -0.01390805
11      1.50116305
12     -0.21237227
13     -0.09486648
14     -0.22212503
15     -2.70354783
16      0.83892780
17      0.50688819
18      1.36593612
19      0.25165792
20      0.21147937
21     -0.38696684
22      0.01188510
23      0.72022343
24     -0.00492909
25     -0.40767501
26      0.14025852
Ene=    -14.79004678
Spin= Beta
Occup=      1.00000000
1     -0.00002783
2     -0.00050317
3      0.00001744
4     -0.00002128
5      0.00010360
6      0.00403379
7     -0.00047555
8      0.00043840
9      0.00315052
10      0.99535802
11      0.02961699
12      0.00027265
13      0.00024877
14     -0.00013782
15     -0.01692489
16     -0.00009845
17      0.00009968
18      0.00204753
19     -0.00006067
20      0.00051341
21     -0.00092531
22      0.00363110
23      0.00041755
24      0.00172848
25     -0.00033764
26      0.00017538
Ene=    -10.56654612
Spin= Beta
Occup=      1.00000000
1      0.99539958
2      0.03161429
3      0.00041297
4      0.00090904
5      0.00060156
6     -0.01823210
7     -0.00039985
8     -0.00151284
9     -0.00003381
10      0.00002103
11     -0.00016013
12     -0.00013030
13     -0.00002832
14      0.00032425
15      0.00217053
16      0.00079858
17      0.00038588
18     -0.00130211
19     -0.00103926
20      0.00467890
21     -0.00045654
22      0.00039780
23     -0.00002727
24      0.00106359
25     -0.00009117
26      0.00316064
Ene=     -1.19898114
Spin= Beta
Occup=      1.00000000
1      0.05804978
2     -0.11703109
3     -0.00016038
4     -0.01797601
5     -0.07861455
6     -0.04684222
7     -0.00666472
8     -0.00592266
9      0.01966874
10      0.20550024
11     -0.44651339
12     -0.05434469
13     -0.03354155
14     -0.01042398
15     -0.46842859
16      0.00413151
17      0.00568329
18      0.02973858
19     -0.01906844
20      0.00957827
21     -0.17934037
22     -0.00221788
23     -0.07015836
24      0.00240895
25     -0.01769999
26      0.00112397
Ene=     -0.92861407
Spin= Beta
Occup=      1.00000000
1     -0.17231361
2      0.35181523
3      0.04262914
4      0.04827578
5      0.00598565
6      0.33224890
7      0.00636702
8      0.03869329
9     -0.00526424
10      0.03397828
11     -0.08458472
12     -0.10921162
13     -0.10529744
14     -0.27878279
15     -0.08401979
16     -0.05063779
17     -0.05232332
18     -0.12628168
19      0.15215952
20      0.03582306
21     -0.18014173
22     -0.02734372
23      0.00751074
24      0.00008330
25      0.08869754
26      0.02487479
Ene=     -0.82884388
Spin= Beta
Occup=      1.00000000
1     -0.06541145
2      0.13423005
3      0.12691322
4      0.02238623
5     -0.14651091
6      0.17665777
7      0.03345989
8      0.01460810
9     -0.02696169
10      0.03519192
11     -0.06825548
12      0.36313462
13      0.22194201
14      0.11302041
15     -0.15341322
16      0.21569529
17      0.13023344
18      0.06920422
19      0.14472432
20      0.05439696
21      0.19494827
22      0.03432583
23     -0.19167868
24     -0.07870065
25      0.03143843
26      0.00971431
Ene=     -0.72202790
Spin= Beta
Occup=      1.00000000
1     -0.02191304
2      0.03962333
3      0.10215824
4     -0.03900544
5     -0.32790848
6      0.09445834
7      0.04130769
8     -0.00441373
9     -0.09436901
10      0.00453419
11     -0.01225447
12     -0.22985903
13     -0.06334873
14      0.39076058
15     -0.02755251
16     -0.16732238
17     -0.05294620
18      0.24035183
19      0.18682397
20      0.09277984
21      0.02337206
22      0.02168292
23      0.17291930
24      0.10499304
25      0.03274088
26      0.02343603
Ene=     -0.64837222
Spin= Beta
Occup=      1.00000000
1     -0.01326974
2      0.00633736
3     -0.35302887
4      0.21881894
5     -0.08049713
6      0.10412865
7     -0.20319349
8      0.13195283
9     -0.00924338
10      0.01615752
11     -0.03196727
12     -0.06594839
13      0.19351819
14      0.08036348
15     -0.10097226
16     -0.04584146
17      0.12362312
18      0.07107716
19     -0.14329600
20     -0.07394958
21      0.05119473
22      0.02354981
23     -0.01268439
24     -0.00791212
25      0.25903649
26      0.21173037
Ene=     -0.53329799
Spin= Beta
Occup=      0.00000000
1     -0.02265333
2      0.04198279
3     -0.19089916
4     -0.07420837
5     -0.01680104
6      0.10798008
7     -0.12437519
8     -0.02790572
9      0.00163304
10      0.01144764
11     -0.02318867
12      0.32186538
13     -0.52237577
14      0.14653839
15     -0.07558555
16      0.21246380
17     -0.34919645
18      0.10657024
19     -0.08088999
20     -0.05499659
21      0.03611785
22      0.02311038
23     -0.01393672
24     -0.00750366
25      0.11022816
26      0.10302218
Ene=     -0.39878976
Spin= Beta
Occup=      0.00000000
1     -0.06183391
2      0.14665977
3     -0.26272139
4     -0.53881636
5      0.00291747
6      0.22861912
7     -0.20142641
8     -0.39181990
9      0.02196473
10      0.01630116
11     -0.03425404
12     -0.06477505
13      0.21720138
14      0.02480465
15     -0.11264490
16     -0.06177709
17      0.15494759
18      0.01242448
19     -0.03892855
20     -0.01779048
21      0.06717624
22      0.06542700
23     -0.04629658
24     -0.04371390
25     -0.06705082
26     -0.08981893
Ene=     -0.25371343
Spin= Beta
Occup=      0.00000000
1      0.01956786
2     -0.02002136
3     -0.04496743
4     -0.01352522
5     -0.11491553
6     -0.15594455
7     -0.04472265
8      0.00198406
9     -0.15818978
10     -0.10583949
11      0.23551864
12     -0.23505091
13     -0.12855865
14      0.06473876
15      0.91435540
16     -0.29437300
17     -0.16214441
18      0.09460380
19      0.04685714
20      0.06333465
21     -0.11181910
22     -0.31827407
23     -0.31929312
24     -1.01291044
25      0.01264158
26     -0.02089441
Ene=     -0.17113421
Spin= Beta
Occup=      0.00000000
1      0.13816651
2     -0.25093706
3     -0.00543550
4     -0.17176690
5     -0.30659731
6     -1.25807335
7     -0.04275174
8     -0.28810494
9     -0.48131832
10     -0.06597761
11      0.13641923
12      0.18129490
13      0.05003256
14     -0.35678967
15      0.68355207
16      0.27950283
17      0.08294024
18     -0.60654641
19      0.11537911
20      0.42380323
21     -0.03665718
22     -0.26692700
23      0.07570410
24      0.31756976
25      0.10181531
26      0.51629676
Ene=     -0.14048870
Spin= Beta
Occup=      0.00000000
1     -0.03675014
2      0.08219370
3     -0.29944743
4      0.23141661
5     -0.30294483
6      0.32351421
7     -0.49357136
8      0.37276441
9     -0.59091734
10     -0.02140441
11      0.05173884
12      0.12281350
13     -0.01801296
14     -0.13099797
15      0.25001518
16      0.18490523
17     -0.06739729
18     -0.25235812
19      0.03525502
20     -0.03171552
21      0.02560054
22     -0.08205859
23      0.06302238
24      0.17882079
25     -0.21778494
26     -1.16645962
Ene=     -0.07556559
Spin= Beta
Occup=      0.00000000
1      0.04967182
2     -0.10383335
3     -0.13470051
4      0.01585677
5      0.00754222
6     -0.68963688
7     -0.25427146
8      0.07467597
9      0.08400959
10      0.04259541
11     -0.08726411
12     -0.22665844
13     -0.18650472
14     -0.21534201
15     -0.85567859
16     -0.54968229
17     -0.41657437
18     -0.47936210
19      0.08209578
20      0.77650215
21      0.13642214
22      1.77258029
23     -0.04640989
24     -0.37848086
25     -0.02300699
26     -0.03489673
Ene=     -0.00554286
Spin= Beta
Occup=      0.00000000
1     -0.02811993
2      0.06777261
3      0.27573140
4     -0.09458006
5     -0.34555383
6      0.70688998
7      0.85887806
8     -0.16053211
9     -1.09270860
10     -0.01246791
11      0.00038954
12     -0.11876397
13     -0.06115931
14     -0.21172623
15      0.14695456
16     -0.29852736
17     -0.19004210
18     -0.58186081
19     -0.09743657
20     -2.02767701
21     -0.00059123
22      0.82457785
23      0.03664166
24     -0.09754734
25      0.03876380
26      0.17683996
Ene=      0.33050322
Spin= Beta
Occup=      0.00000000
1     -0.00586815
2     -0.28672757
3     -0.55287237
4     -0.44987085
5     -0.64835777
6      0.74468542
7      0.58457597
8      0.50614272
9      1.19116267
10     -0.00906964
11      0.03168487
12      0.00450967
13     -0.01178844
14     -0.10094024
15     -0.47892752
16      0.13110224
17      0.18003065
18      0.67521578
19     -0.09540018
20      0.11293919
21     -0.35766563
22     -0.22171922
23     -0.10827183
24      0.15585214
25      0.05130853
26      0.04344705
Ene=      0.35291345
Spin= Beta
Occup=      0.00000000
1      0.01518981
2     -0.39692961
3      0.09134177
4      0.78644667
5     -0.42821766
6      0.50742366
7     -0.17666560
8     -0.89286038
9      0.88487851
10     -0.00699005
11      0.05657767
12     -0.22250152
13      0.15781031
14     -0.09614078
15     -0.43503149
16      0.37712730
17      0.12168697
18      0.45914015
19     -0.06000731
20      0.23760490
21     -0.16948387
22     -0.16610023
23     -0.35114830
24      0.33968105
25      0.02252479
26      0.20234415
Ene=      0.36607743
Spin= Beta
Occup=      0.00000000
1     -0.00868155
2     -0.12436968
3     -0.50058252
4      0.13863447
5      0.38031241
6      0.20561073
7      1.14760768
8     -0.24711433
9     -1.38788642
10     -0.00503743
11     -0.11340238
12     -0.30169370
13      0.38467031
14      0.06652992
15      0.78910734
16      0.27997505
17     -0.39123837
18     -0.45280534
19     -0.49181278
20     -0.68641163
21     -0.12139508
22      0.09089405
23      0.26660650
24     -0.03963321
25      0.06398887
26      0.12387705
Ene=      0.43216935
Spin= Beta
Occup=      0.00000000
1      0.00475876
2      0.21479530
3      0.06329607
4     -0.01427505
5     -0.32020286
6     -0.40258763
7     -0.37190727
8      0.19787917
9      0.95380680
10      0.02080059
11      0.05872748
12     -0.01316420
13      0.55147475
14     -0.08371668
15     -0.49898974
16     -0.33647047
17     -0.88459631
18      0.04910677
19      0.28853265
20      0.46661091
21      0.45302364
22      0.17528054
23      0.55220787
24     -0.92744961
25      0.39937627
26     -0.22965666
Ene=      0.45587251
Spin= Beta
Occup=      0.00000000
1      0.00569735
2      0.06989562
3      0.23280565
4     -0.32247095
5      0.34011148
6      0.40530460
7     -0.65314201
8      0.69189150
9     -0.15038599
10     -0.00989511
11      0.05666080
12     -0.17064623
13      0.38126933
14     -0.47661865
15     -0.06881683
16      0.49772356
17     -0.40888985
18      0.94837737
19      0.15877881
20      0.12983260
21     -0.26258447
22     -0.22010399
23     -0.57120132
24      0.61315741
25      0.21797104
26     -0.67245490
Ene=      0.50326341
Spin= Beta
Occup=      0.00000000
1     -0.00005235
2     -0.25650099
3      0.30708801
4     -0.32961621
5     -0.17992790
6     -0.21763745
7     -0.74553090
8      0.56940430
9     -0.03713092
10     -0.00870372
11      0.22206018
12     -0.60128907
13      0.05216894
14      0.57290768
15     -0.51614333
16      0.89406393
17     -0.19694548
18     -0.98669136
19     -0.10818394
20      0.47045998
21      0.21124594
22      0.01936536
23     -0.22251227
24      0.74992503
25     -0.08726574
26     -0.40220871
Ene=      0.58000268
Spin= Beta
Occup=      0.00000000
1      0.00418049
2     -0.95106762
3      0.34818649
4     -0.11748628
5      0.06171271
6      1.85929708
7     -0.59000406
8      0.23245059
9      0.05503928
10      0.00301608
11      0.00104818
12      0.04025525
13     -0.26035070
14     -0.02621672
15     -0.13178317
16      0.13687901
17      0.48519948
18      0.40329541
19     -0.33134880
20      0.21782609
21     -0.11784070
22     -0.25556287
23      0.29515409
24     -0.23599874
25      0.88470723
26     -1.58263300
Ene=      0.62343709
Spin= Beta
Occup=      0.00000000
1     -0.01791677
2     -0.69352909
3      0.47467686
4     -0.14972109
5     -0.16526636
6      0.86994922
7     -0.77823608
8      0.47978097
9      0.18408123
10      0.00680987
11     -0.37598839
12      0.37340348
13      0.39552404
14      0.08845419
15      0.36396450
16     -0.39484619
17     -0.58346323
18      0.23255348
19     -0.40346495
20      0.48730762
21     -0.46743871
22      0.43946807
23      0.24584445
24     -0.89447858
25     -0.61656557
26     -0.05404308
Ene=      0.70212077
Spin= Beta
Occup=      0.00000000
1     -0.03383578
2      0.22898452
3      0.25372534
4     -0.08182440
5     -0.23882969
6     -0.03760803
7     -0.48875634
8      0.17473011
9      0.80901096
10      0.02996393
11     -0.23406896
12     -0.38280317
13     -0.27993183
14     -0.59205915
15      0.28019169
16      0.56487177
17      0.39169257
18      1.12130439
19     -0.67692687
20      1.12737566
21      0.71953720
22     -1.44560158
23      0.16892401
24     -0.08219927
25     -0.30251405
26      0.20437604
Ene=      0.77517832
Spin= Beta
Occup=      0.00000000
1     -0.01570104
2      1.45469552
3      0.31494557
4      0.05308545
5     -0.25803856
6     -2.67466921
7     -0.52422072
8     -0.23335462
9      0.32583593
10     -0.03622605
11      0.43042959
12      0.16122301
13      0.06513819
14      0.15774313
15     -0.37197276
16      0.00985290
17      0.02619829
18     -0.44565114
19     -0.69688013
20      1.72049694
21     -0.55243765
22      0.77923769
23      0.00174430
24      0.16592826
25      0.31114318
26      0.09379423
Ene=      0.85288962
Spin= Beta
Occup=      0.00000000
1     -0.02852350
2     -0.53608788
3     -0.07372067
4     -0.02883255
5      0.02176316
6      1.36808995
7      0.95069881
8      0.22190686
9     -0.24779779
10     -0.00238890
11      0.99216101
12      0.42945983
13      0.16767349
14     -0.01736008
15     -2.19142922
16     -1.61913213
17     -0.80909240
18     -0.38211335
19     -0.44888183
20     -0.62491060
21      0.67302530
22      1.18178436
23     -0.53179191
24      0.14795982
25     -0.00915988
26     -0.07079840