[Molden Format]
[Atoms] AU
C  1 6  -0.00682204   0.21886835  -0.21245360
N  2 7   0.01488485  -0.04032808   2.72543390
H  3 1   1.17799532  -0.92169779  -1.67933147
H  4 1   1.56158573   0.10059451   3.80204809
H  5 1  -1.62512309  -0.27361547   3.53177243
H  6 1  -1.25030540  -0.83456106  -1.34759618
[GTO]
1
s 9
    6.665000000000e+03     6.919999723323e-04
    1.000000000000e+03     5.328999832273e-03
    2.280000000000e+02     2.707700058818e-02
    6.470999908447e+01     1.017180010676e-01
    2.105999946594e+01     2.747400105000e-01
    7.494999885559e+00     4.485639929771e-01
    2.796999931335e+00     2.850739955902e-01
    5.214999914169e-01     1.520400028676e-02
    1.596000045538e-01    -3.191000083461e-03
s 9
    6.665000000000e+03    -1.460000057705e-04
    1.000000000000e+03    -1.154000055976e-03
    2.280000000000e+02    -5.725000053644e-03
    6.470999908447e+01    -2.331200055778e-02
    2.105999946594e+01    -6.395500153303e-02
    7.494999885559e+00    -1.499810069799e-01
    2.796999931335e+00    -1.272619962692e-01
    5.214999914169e-01     5.445290207863e-01
    1.596000045538e-01     5.804960131645e-01
s 1
    1.596000045538e-01     1.000000000000e+00
p 4
    9.439000129700e+00     3.810900077224e-02
    2.002000093460e+00     2.094800025225e-01
    5.455999970436e-01     5.085570216179e-01
    1.517000049353e-01     4.688419997692e-01
p 1
    1.517000049353e-01     1.000000000000e+00
d 1
    5.500000119209e-01     1.000000000000e+00
s 1
    4.690000042319e-02     1.000000000000e+00
p 1
    4.041000083089e-02     1.000000000000e+00
d 1
    1.509999930859e-01     1.000000000000e+00

2
s 9
    9.046000000000e+03     6.999999750406e-04
    1.357000000000e+03     5.388999823481e-03
    3.092999877930e+02     2.740599960089e-02
    8.773000335693e+01     1.032069995999e-01
    2.855999946594e+01     2.787230014801e-01
    1.021000003815e+01     4.485400021076e-01
    3.838000059128e+00     2.782379984856e-01
    7.465999722481e-01     1.544000022113e-02
    2.248000055552e-01    -2.863999921829e-03
s 9
    9.046000000000e+03    -1.530000008643e-04
    1.357000000000e+03    -1.208000001498e-03
    3.092999877930e+02    -5.991999991238e-03
    8.773000335693e+01    -2.454400062561e-02
    2.855999946594e+01    -6.745900213718e-02
    1.021000003815e+01    -1.580779999495e-01
    3.838000059128e+00    -1.218309998512e-01
    7.465999722481e-01     5.490030050278e-01
    2.248000055552e-01     5.788149833679e-01
s 1
    2.248000055552e-01     1.000000000000e+00
p 4
    1.355000019073e+01     3.991900011897e-02
    2.917000055313e+00     2.171690016985e-01
    7.972999811172e-01     5.103189945221e-01
    2.185000032187e-01     4.622139930725e-01
p 1
    2.185000032187e-01     1.000000000000e+00
d 1
    8.169999718666e-01     1.000000000000e+00
s 1
    6.123999878764e-02     1.000000000000e+00
p 1
    5.610999837518e-02     1.000000000000e+00
d 1
    2.300000041723e-01     1.000000000000e+00

3
s 4
    1.301000022888e+01     1.968500018120e-02
    1.962000012398e+00     1.379770040512e-01
    4.445999860764e-01     4.781480133533e-01
    1.220000013709e-01     5.012400150299e-01
s 1
    1.220000013709e-01     1.000000000000e+00
p 1
    7.269999980927e-01     1.000000000000e+00
s 1
    2.974000014365e-02     1.000000000000e+00
p 1
    1.410000026226e-01     1.000000000000e+00

4
s 4
    1.301000022888e+01     1.968500018120e-02
    1.962000012398e+00     1.379770040512e-01
    4.445999860764e-01     4.781480133533e-01
    1.220000013709e-01     5.012400150299e-01
s 1
    1.220000013709e-01     1.000000000000e+00
p 1
    7.269999980927e-01     1.000000000000e+00
s 1
    2.974000014365e-02     1.000000000000e+00
p 1
    1.410000026226e-01     1.000000000000e+00

5
s 4
    1.301000022888e+01     1.968500018120e-02
    1.962000012398e+00     1.379770040512e-01
    4.445999860764e-01     4.781480133533e-01
    1.220000013709e-01     5.012400150299e-01
s 1
    1.220000013709e-01     1.000000000000e+00
p 1
    7.269999980927e-01     1.000000000000e+00
s 1
    2.974000014365e-02     1.000000000000e+00
p 1
    1.410000026226e-01     1.000000000000e+00

6
s 4
    1.301000022888e+01     1.968500018120e-02
    1.962000012398e+00     1.379770040512e-01
    4.445999860764e-01     4.781480133533e-01
    1.220000013709e-01     5.012400150299e-01
s 1
    1.220000013709e-01     1.000000000000e+00
p 1
    7.269999980927e-01     1.000000000000e+00
s 1
    2.974000014365e-02     1.000000000000e+00
p 1
    1.410000026226e-01     1.000000000000e+00

[MO]
Ene=    -14.80686646
Spin= Alpha
Occup=      1.00000000
1      0.00001360
2      0.00009945
3     -0.00760883
4      0.00000211
5      0.00004271
6      0.00011417
7      0.00023039
8      0.00121523
9     -0.00360000
10     -0.00007948
11     -0.00000772
12      0.00028150
13     -0.00001000
14     -0.00000755
15     -0.00007755
16      0.00058883
17      0.00009480
18      0.00005407
19      0.00029054
20      0.00028959
21     -0.00030584
22     -0.00203873
23     -0.00002853
24      0.00002319
25      0.00016469
26      1.00461031
27      0.02919566
28     -0.00927835
29     -0.00007041
30     -0.00014678
31      0.00007786
32     -0.00000317
33      0.00025994
34     -0.00154899
35     -0.00505402
36     -0.00487948
37     -0.00517042
38     -0.00001922
39     -0.00004039
40      0.00000598
41      0.00359111
42      0.00007838
43     -0.00002319
44      0.00141676
45      0.00464843
46      0.00452736
47      0.00633862
48      0.00001926
49      0.00005376
50     -0.00010185
51      0.00012632
52      0.00082932
53     -0.00000767
54     -0.00003381
55      0.00006988
56      0.00001296
57     -0.00033539
58      0.00019936
59      0.00021191
60      0.00090614
61     -0.00803877
62     -0.00029573
63     -0.00001986
64     -0.00027281
65     -0.00063129
66      0.00206976
67      0.00016410
68      0.00117995
69      0.00091083
70     -0.00763105
71      0.00028082
72      0.00004223
73     -0.00017267
74     -0.00047690
75     -0.00211188
76     -0.00030298
77      0.00078482
78      0.00016749
79      0.00186169
80      0.00001893
81     -0.00002900
82      0.00004712
83      0.00028678
84      0.00050773
85      0.00028088
86      0.00060901
Ene=    -10.55831231
Spin= Alpha
Occup=      1.00000000
1     -1.00312429
2     -0.02825631
3      0.00797509
4     -0.00011017
5      0.00120080
6     -0.00155034
7      0.00012791
8     -0.00062389
9      0.00005580
10      0.00669650
11      0.00664434
12      0.00650079
13     -0.00004622
14     -0.00005693
15     -0.00006264
16      0.00233479
17     -0.00007589
18     -0.00005887
19      0.00000121
20     -0.00061907
21     -0.00027183
22     -0.00117623
23      0.00004608
24      0.00006989
25      0.00016522
26      0.00000043
27     -0.00020782
28      0.00080439
29     -0.00001050
30     -0.00009454
31      0.00047336
32      0.00010807
33      0.00016212
34     -0.00136720
35     -0.00015723
36      0.00001206
37      0.00000563
38     -0.00002084
39     -0.00001001
40     -0.00000814
41     -0.00023037
42      0.00004875
43     -0.00001452
44      0.00022777
45     -0.00014712
46      0.00021898
47      0.00119858
48     -0.00005888
49      0.00000289
50     -0.00011524
51     -0.00072521
52      0.00122179
53      0.00002158
54     -0.00006438
55     -0.00004129
56     -0.00029607
57     -0.00007133
58      0.00030644
59      0.00004001
60      0.00045057
61     -0.00036854
62     -0.00001114
63      0.00000743
64     -0.00018317
65     -0.00012684
66      0.00017255
67      0.00003288
68     -0.00023966
69      0.00062038
70      0.00004295
71      0.00003739
72      0.00000710
73     -0.00014334
74     -0.00004646
75      0.00000054
76      0.00003100
77     -0.00036311
78     -0.00079769
79      0.00097290
80      0.00001199
81     -0.00005595
82      0.00002503
83     -0.00059832
84     -0.00004787
85      0.00029955
86     -0.00003991
Ene=     -1.24384843
Spin= Alpha
Occup=      1.00000000
1      0.01120706
2     -0.20195853
3      0.10917216
4      0.00227372
5      0.02370870
6     -0.10857254
7      0.00358288
8     -0.02750656
9      0.04025896
10      0.00714303
11      0.00858179
12     -0.01642439
13     -0.00005454
14      0.00146568
15      0.00504540
16     -0.01638105
17      0.00301979
18     -0.00234244
19     -0.00938411
20     -0.00800858
21      0.00836077
22      0.01303032
23     -0.00202577
24     -0.00056550
25      0.00913023
26      0.02413690
27     -0.82468221
28      0.17859998
29      0.02003063
30      0.00353845
31     -0.03039823
32     -0.01797835
33     -0.00827465
34      0.09626851
35      0.00180198
36      0.01334376
37      0.00079107
38     -0.00159904
39     -0.00050273
40      0.00058586
41      0.07366306
42     -0.00289215
43      0.00142921
44     -0.01073817
45      0.09577726
46      0.03227826
47      0.02272308
48      0.00847140
49      0.00328057
50      0.00155802
51     -0.04241678
52     -0.00246589
53      0.00233325
54     -0.00040450
55     -0.00508921
56     -0.00506488
57      0.00615069
58      0.00115762
59     -0.00413584
60     -0.33061209
61      0.06202954
62      0.02459799
63      0.00234643
64      0.01802295
65      0.00035750
66      0.02212267
67      0.00097042
68      0.03040179
69     -0.36480956
70      0.06127044
71     -0.02805504
72     -0.00411523
73      0.01498085
74     -0.00097761
75     -0.03074502
76     -0.00506073
77      0.02730382
78     -0.05561477
79      0.01224071
80     -0.00421203
81     -0.00121824
82     -0.00487208
83      0.00072275
84     -0.00926208
85      0.00288310
86     -0.00077037
Ene=     -0.97026502
Spin= Alpha
Occup=      1.00000000
1      0.02054471
2     -0.68811110
3      0.41269359
4      0.03444896
5      0.18319627
6      0.04211664
7     -0.06287007
8     -0.15462987
9     -0.15909737
10      0.01067168
11      0.00597909
12     -0.00886289
13     -0.00098475
14     -0.00144012
15     -0.00232694
16      0.06869178
17     -0.00830850
18     -0.01495389
19     -0.01112199
20      0.06384390
21      0.05586055
22      0.06252870
23      0.01169465
24      0.00668870
25      0.04294621
26     -0.00236903
27      0.14641200
28     -0.04908217
29      0.01966049
30     -0.00991517
31      0.35986155
32     -0.00154428
33     -0.00376357
34     -0.08308362
35      0.00512176
36     -0.00072168
37     -0.01213584
38      0.00094681
39      0.00031624
40     -0.00158055
41     -0.05591071
42      0.00182486
43     -0.00217451
44      0.02378262
45     -0.02778993
46     -0.00125172
47     -0.01284923
48     -0.00504532
49     -0.01157091
50     -0.00093406
51     -0.34321744
52      0.01846067
53      0.01591008
54     -0.00667532
55     -0.01285562
56     -0.00661179
57      0.02687908
58     -0.02222386
59     -0.02414451
60      0.24208946
61     -0.07246382
62     -0.01723378
63     -0.00146272
64     -0.00396011
65      0.00410772
66     -0.00940672
67     -0.00118040
68     -0.01274628
69      0.18531717
70     -0.04972289
71      0.01466228
72      0.00181476
73     -0.00091184
74     -0.00136977
75      0.00770129
76     -0.00120514
77     -0.01550169
78     -0.42694956
79     -0.08937469
80     -0.01881372
81     -0.00731440
82     -0.01188684
83     -0.01239987
84     -0.04985799
85     -0.04051180
86     -0.03928358
Ene=     -0.87255821
Spin= Alpha
Occup=      1.00000000
1      0.00093212
2     -0.04791660
3      0.02110664
4     -0.10351943
5      0.00590158
6      0.01059203
7      0.05462242
8      0.00126694
9     -0.01330784
10      0.00083517
11      0.00051571
12      0.00012406
13      0.00222431
14     -0.01332272
15     -0.00233601
16      0.01436789
17     -0.00244341
18     -0.00048965
19      0.00329439
20      0.00591575
21      0.00338480
22      0.01064330
23     -0.00402396
24      0.03464770
25      0.00625627
26      0.00033348
27     -0.01424434
28     -0.02192286
29     -0.75039562
30     -0.09572461
31     -0.02083157
32      0.22548800
33      0.02568658
34      0.00998649
35      0.00424997
36      0.00018419
37     -0.00386751
38      0.00173103
39     -0.01791924
40     -0.00225069
41     -0.02322607
42     -0.00821655
43     -0.00225953
44      0.00819014
45     -0.00850972
46     -0.00118479
47      0.01134595
48     -0.00433494
49      0.08499613
50      0.00965470
51     -0.06469801
52      0.06938138
53      0.00151393
54     -0.00292166
55     -0.00349753
56     -0.00100613
57     -0.01546621
58      0.00657207
59     -0.00193839
60     -0.58084082
61      0.12379837
62      0.01768329
63      0.00125712
64      0.01892331
65      0.00713949
66      0.05460124
67      0.00586774
68      0.01215261
69      0.60463894
70     -0.11579985
71      0.02052554
72      0.00310443
73     -0.01449851
74     -0.00970398
75      0.05952546
76      0.00779898
77     -0.01086200
78      0.01531147
79     -0.07897280
80     -0.00038123
81      0.00187161
82      0.00111994
83      0.00183961
84     -0.02388071
85     -0.01299884
86      0.00836377
Ene=     -0.79936371
Spin= Alpha
Occup=      1.00000000
1      0.00303667
2     -0.05119425
3      0.08361821
4      0.04543942
5      0.15257628
6      0.52819299
7     -0.03430673
8     -0.09970631
9     -0.24969395
10     -0.00911101
11     -0.01167188
12      0.03046454
13     -0.00209111
14      0.00078761
15     -0.01335842
16     -0.00456697
17     -0.00494252
18     -0.00976662
19     -0.02689942
20      0.00326019
21      0.02180059
22     -0.03203354
23      0.00439043
24      0.00418346
25      0.02367721
26     -0.00062953
27      0.09326471
28      0.12032519
29      0.02618468
30      0.08070415
31     -0.62916297
32     -0.00016270
33     -0.00593807
34      0.05787450
35     -0.00705377
36      0.00040463
37      0.00670277
38     -0.00103599
39     -0.00017989
40     -0.00283814
41      0.04516336
42      0.00266709
43      0.00275406
44     -0.04357955
45      0.02410554
46     -0.01100724
47     -0.01508951
48      0.00369130
49      0.00141736
50     -0.00383603
51     -0.33119771
52      0.09544894
53      0.01594776
54     -0.00598306
55     -0.00272270
56     -0.01207833
57      0.01108003
58      0.00486061
59     -0.01588897
60     -0.26050985
61      0.10457120
62      0.01620814
63      0.00348307
64      0.00064350
65      0.01301289
66     -0.00365763
67     -0.00049477
68      0.01398476
69     -0.24902533
70      0.11048146
71     -0.01512090
72     -0.00052496
73     -0.00447983
74      0.01149695
75      0.00566681
76     -0.00010421
77      0.00921768
78     -0.37441571
79      0.03488539
80     -0.01748061
81     -0.00577510
82      0.00082203
83     -0.01751955
84     -0.02861551
85     -0.00384841
86     -0.02291505
Ene=     -0.59057060
Spin= Alpha
Occup=      1.00000000
1     -0.00066872
2      0.01464690
3     -0.07712502
4     -0.73857357
5      0.05868965
6      0.02534741
7      0.13898957
8      0.02067901
9      0.01539323
10      0.00267350
11     -0.00133082
12     -0.00212173
13      0.02098082
14      0.01026374
15      0.00445163
16     -0.03398018
17      0.00235158
18      0.00629601
19      0.00149459
20     -0.00678438
21     -0.00912490
22     -0.00262525
23      0.00159587
24     -0.01809310
25     -0.00540350
26     -0.00034651
27     -0.01372733
28      0.00341874
29      0.09342897
30      0.17416128
31      0.02465483
32     -0.05367190
33     -0.00921391
34     -0.00520411
35     -0.00075412
36     -0.00025112
37      0.00146018
38     -0.00131060
39      0.02005761
40     -0.00038766
41      0.01877070
42     -0.00231045
43      0.00492657
44     -0.00324916
45      0.00532544
46      0.00014230
47      0.00252970
48      0.00291996
49      0.01517026
50     -0.00170817
51     -0.51317814
52      0.10330445
53      0.00089335
54     -0.01149684
55     -0.01591936
56     -0.01297034
57      0.00195100
58     -0.01032774
59     -0.01311695
60      0.14769621
61     -0.00092749
62     -0.00246944
63      0.00401818
64     -0.00364060
65     -0.00005035
66     -0.01810175
67     -0.00194337
68     -0.01240292
69     -0.14461751
70     -0.01500379
71     -0.00258023
72      0.00460419
73      0.00426719
74     -0.00078565
75     -0.02143613
76     -0.00268201
77      0.01320595
78      0.48346751
79     -0.01827427
80     -0.00126600
81      0.01322259
82      0.01434722
83      0.02318456
84      0.01612898
85      0.02047121
86      0.02731974
Ene=     -0.59126781
Spin= Alpha
Occup=      1.00000000
1      0.00221508
2     -0.15337819
3     -0.03647690
4     -0.14457027
5     -0.29051866
6      0.06851232
7      0.02603437
8      0.06030783
9     -0.03116615
10      0.00217817
11      0.00226753
12     -0.00323655
13      0.00232850
14      0.00568100
15     -0.02423991
16      0.02811737
17     -0.00130475
18     -0.00259710
19     -0.00167414
20      0.01095108
21      0.01765802
22      0.02781145
23     -0.00011824
24     -0.00513306
25      0.02348171
26     -0.00043189
27      0.04030521
28      0.01888278
29      0.14356026
30     -0.88060258
31     -0.12763168
32     -0.01680158
33      0.02201313
34     -0.01048910
35     -0.00166468
36      0.00109599
37     -0.00078039
38      0.00053956
39      0.00482458
40      0.00217393
41     -0.03761727
42      0.00509893
43     -0.02740430
44      0.01101837
45     -0.00565296
46     -0.00413099
47      0.00672479
48      0.00220410
49      0.00372693
50      0.01107344
51     -0.10232189
52     -0.01685484
53     -0.00249183
54     -0.00503661
55      0.00112494
56     -0.00516314
57      0.00782644
58     -0.00394352
59      0.00174655
60      0.00845674
61      0.01858181
62      0.00380976
63     -0.02029044
64     -0.00313791
65     -0.00083784
66     -0.00527385
67      0.00472795
68     -0.00644381
69     -0.05861205
70      0.01998799
71      0.00035555
72     -0.02041742
73     -0.00112495
74      0.00015992
75     -0.00386957
76      0.00620774
77      0.00179522
78      0.10582812
79     -0.02685048
80      0.00287290
81     -0.00219846
82      0.00591492
83     -0.00043422
84      0.00181887
85      0.00406691
86      0.01453568
Ene=     -0.41334699
Spin= Alpha
Occup=      1.00000000
1      0.00258698
2     -0.41857687
3     -0.02771526
4     -0.01225274
5     -0.81105353
6      0.11243711
7      0.00695240
8     -0.01225139
9     -0.08275122
10      0.00381538
11     -0.00289172
12      0.01580563
13     -0.00121101
14     -0.00056343
15      0.01140838
16     -0.00659659
17      0.00355823
18     -0.03988237
19      0.00195829
20      0.05626920
21      0.06212737
22      0.01721825
23     -0.00199407
24     -0.00513101
25      0.00201008
26      0.00041805
27      0.11004992
28      0.06642579
29     -0.03878693
30      0.44379210
31     -0.12930457
32     -0.00455176
33      0.01595664
34     -0.02894673
35     -0.00070457
36     -0.00061993
37     -0.00418781
38     -0.00093321
39      0.00031544
40      0.01892246
41     -0.03831236
42     -0.00768648
43      0.03749019
44     -0.00076773
45     -0.00910748
46     -0.00941646
47     -0.00455497
48      0.00083197
49     -0.00042832
50      0.01419214
51      0.17247676
52     -0.15545543
53     -0.00649463
54     -0.01571854
55      0.00462210
56     -0.00172713
57      0.00743024
58     -0.01875136
59     -0.03328556
60     -0.02654577
61      0.03498474
62      0.00038881
63      0.01114945
64     -0.00250301
65      0.00502513
66     -0.00742665
67      0.00078694
68     -0.00608309
69     -0.04587290
70      0.01996016
71     -0.00235356
72      0.01129215
73     -0.00245011
74     -0.00134226
75      0.00265882
76      0.00221492
77     -0.00048717
78      0.15200741
79     -0.14909720
80      0.00853642
81     -0.01772590
82      0.00465290
83      0.00335373
84     -0.00214554
85     -0.01447690
86     -0.02960424
Ene=     -0.20970886
Spin= Alpha
Occup=      0.00000000
1      0.00184952
2      0.26034568
3      0.03721765
4      0.06622607
5     -0.16377786
6      0.37096120
7      0.02991708
8     -0.00955067
9      0.02434068
10      0.01397646
11      0.01699719
12     -0.03830355
13      0.00097541
14     -0.00037442
15     -0.00774156
16      0.40772858
17      0.03467005
18     -0.04952435
19      0.22252683
20      0.01513302
21      0.01057299
22     -0.04841327
23     -0.00183118
24      0.00350147
25     -0.00419400
26     -0.00814369
27     -0.53639538
28     -0.29970398
29     -0.03535105
30      0.03172967
31      0.11741348
32     -0.00942725
33      0.00651698
34      0.01568987
35      0.00891014
36     -0.00554447
37      0.02359897
38      0.00228819
39      0.00045474
40      0.00201526
41     -0.33284368
42     -0.00893177
43     -0.02197503
44      0.20028450
45      0.05866256
46      0.01920529
47      0.09936326
48      0.00558417
49      0.00370852
50      0.00038749
51     -0.15196945
52     -0.02483254
53      0.00660399
54     -0.00549716
55      0.01673425
56     -0.06144358
57      0.01137241
58     -0.00388993
59      0.05438973
60      0.22790242
61      0.11688133
62      0.01633163
63      0.00240316
64      0.01902424
65      0.16411885
66      0.06249071
67      0.01065093
68      0.05625535
69      0.17975251
70      0.09579196
71     -0.01817133
72     -0.00178229
73      0.01478803
74      0.14451028
75     -0.07049429
76     -0.00792224
77      0.03972489
78     -0.08427768
79      0.06981018
80     -0.00407837
81     -0.00669191
82      0.01789863
83      0.02782918
84      0.00024422
85     -0.00248251
86      0.07546793
Ene=     -0.16724227
Spin= Alpha
Occup=      0.00000000
1     -0.01099228
2     -0.50798380
3     -0.43025641
4     -0.10193207
5      0.24687094
6     -0.12621857
7     -0.04190377
8      0.05571879
9     -0.06064323
10      0.00264318
11     -0.00751604
12      0.02867121
13     -0.00276042
14     -0.00503903
15      0.00888249
16     -0.41363175
17     -0.06118884
18      0.00149232
19     -0.05498232
20     -0.00142528
21     -0.02015709
22     -0.00629109
23     -0.00209162
24     -0.00339004
25      0.01331028
26     -0.00045408
27      0.02871683
28      0.05915728
29      0.03631723
30      0.00185940
31     -0.35034384
32      0.00665559
33     -0.00221024
34     -0.05818184
35      0.01687858
36      0.00908801
37     -0.02912962
38      0.00029967
39      0.00478917
40     -0.00308618
41      0.26419611
42      0.01548112
43     -0.00638109
44     -0.23081048
45      0.03865094
46      0.02473517
47     -0.04489037
48      0.00024102
49      0.00609801
50     -0.00262168
51      0.18772886
52      0.27090973
53      0.00700547
54     -0.00883145
55     -0.02393780
56      0.40833228
57     -0.00800022
58     -0.01547401
59     -0.05568222
60      0.01564913
61      0.05499310
62      0.01647637
63      0.00044486
64     -0.00676017
65      0.17657952
66      0.05568268
67     -0.00645003
68     -0.00773156
69      0.00968796
70      0.07469056
71     -0.01590373
72     -0.00317632
73     -0.00963853
74      0.19255717
75     -0.05333282
76     -0.01372830
77     -0.02496371
78      0.00486221
79      0.09215341
80     -0.01158127
81     -0.00616252
82     -0.02022090
83      0.20654725
84     -0.02131461
85     -0.01534305
86     -0.04754122
Ene=     -0.13901700
Spin= Alpha
Occup=      0.00000000
1      0.00045373
2      0.00648009
3      0.04118821
4     -0.22493524
5      0.00762244
6      0.02613300
7     -0.11389532
8     -0.00692702
9     -0.00463959
10     -0.00306830
11     -0.00146877
12      0.00459849
13     -0.00573409
14     -0.02654332
15     -0.00142901
16      0.06379784
17     -0.21860003
18      0.00440756
19     -0.02588962
20      0.00518507
21      0.00319724
22      0.00219498
23      0.00315543
24     -0.00074675
25     -0.00042887
26      0.00065151
27     -0.00427368
28      0.00492221
29     -0.39750851
30     -0.05834756
31     -0.04296194
32     -0.03941461
33     -0.00765324
34     -0.00282810
35     -0.00089973
36     -0.00158330
37      0.00346823
38     -0.00359127
39      0.02752621
40      0.00160969
41     -0.00335532
42      0.12839200
43      0.00357987
44      0.03581977
45      0.00051638
46      0.00055851
47      0.01007339
48     -0.00524926
49      0.05916730
50      0.00325272
51      0.13495540
52      0.26653577
53      0.00417485
54     -0.00410471
55     -0.00553781
56      0.60390557
57      0.00508387
58      0.00656327
59      0.00991539
60      0.17760600
61      0.20965331
62      0.02178289
63      0.00080593
64      0.02106184
65      0.91814938
66      0.08279316
67     -0.01324086
68      0.08660259
69     -0.14134278
70     -0.22342008
71      0.02320570
72      0.00360115
73     -0.01646030
74     -0.91791477
75      0.08274681
76      0.03402736
77     -0.06171579
78     -0.10282929
79     -0.31226922
80      0.00558658
81      0.00637743
82      0.00256221
83     -0.68008272
84      0.00214703
85     -0.00375280
86     -0.02280204
Ene=     -0.11109969
Spin= Alpha
Occup=      0.00000000
1     -0.00299678
2     -0.14054230
3     -0.40625569
4      0.01635629
5     -0.09003176
6     -0.39451422
7      0.02285199
8      0.06104985
9     -0.02321438
10     -0.01868458
11     -0.01985740
12      0.04136852
13      0.00056100
14      0.00269752
15     -0.00134034
16     -1.16505692
17      0.01325991
18      0.23943070
19     -1.02129093
20     -0.06137387
21     -0.08812896
22     -0.03511982
23     -0.00040541
24      0.00593667
25     -0.01838477
26     -0.00014974
27      0.08562814
28      0.14230897
29      0.04008318
30     -0.08206308
31     -0.44873730
32      0.00749115
33     -0.01334543
34     -0.07151504
35      0.01432838
36      0.00168802
37     -0.02329069
38      0.00221864
39     -0.00177278
40      0.00493493
41      1.17808808
42     -0.02034018
43      0.28457329
44     -0.33390642
45      0.02547010
46     -0.00669122
47     -0.03687636
48      0.00448083
49     -0.00002281
50      0.01578387
51      0.10157566
52      0.11448242
53     -0.01578572
54      0.01494249
55     -0.00732184
56     -0.78027028
57     -0.05716475
58      0.09124282
59      0.00204778
60      0.00404595
61      0.04202739
62      0.01603505
63      0.00470423
64     -0.00275778
65      0.67374618
66      0.06832670
67      0.00995268
68      0.03656170
69      0.05234029
70      0.06335977
71     -0.01565620
72      0.00076566
73     -0.00335023
74      0.78979205
75     -0.07581404
76     -0.00924198
77      0.03994917
78      0.08563917
79      0.18174799
80      0.01375214
81      0.01153771
82     -0.01210584
83     -0.51014782
84      0.04977016
85      0.08350548
86      0.00657430
Ene=     -0.09385121
Spin= Alpha
Occup=      0.00000000
1      0.01742326
2      0.12125683
3      0.85849708
4     -0.28478967
5      0.15126467
6      0.08620787
7     -0.32236166
8     -0.18785341
9     -0.30073871
10     -0.00898893
11     -0.00666463
12      0.01763783
13     -0.01901720
14     -0.02672859
15      0.00603759
16      0.48666643
17     -0.70112359
18     -0.50059788
19     -0.58610920
20      0.15718683
21      0.16166494
22      0.15070743
23     -0.00288398
24     -0.02137416
25      0.08753987
26      0.00381150
27      0.02709593
28      0.09875397
29      0.10435187
30      0.08781537
31     -0.07020268
32      0.03970060
33      0.01223111
34     -0.02936886
35     -0.01146907
36      0.00015923
37      0.01271896
38     -0.00951577
39      0.01804438
40     -0.00731222
41      0.23375363
42      0.19615621
43     -0.19270307
44      0.43638284
45      0.00722314
46      0.00450623
47      0.05583696
48     -0.00832665
49      0.01580295
50     -0.01378180
51      0.26859960
52      0.11033370
53      0.00472686
54     -0.00597731
55     -0.01110004
56      1.44514306
57      0.02378224
58     -0.09122731
59     -0.09072882
60      0.03661182
61     -0.28735717
62     -0.00573513
63     -0.00660185
64      0.01041404
65     -0.56201153
66     -0.04812064
67     -0.09079145
68      0.10124875
69     -0.13859808
70     -0.00129614
71     -0.00283416
72     -0.00217062
73      0.00905661
74      1.14827562
75      0.01319681
76      0.03071790
77      0.03796235
78     -0.21321680
79     -1.36069580
80      0.00419788
81      0.00807827
82      0.00357291
83     -2.56813924
84     -0.13039033
85     -0.09748471
86     -0.15240950
Ene=     -0.08565548
Spin= Alpha
Occup=      0.00000000
1      0.01656825
2      0.03033030
3      0.70292599
4      0.23317738
5      0.17000597
6     -0.19672946
7      0.26212616
8     -0.17338925
9     -0.41465335
10     -0.00472336
11     -0.01202388
12      0.02101948
13      0.01568288
14      0.02479917
15      0.00505259
16      0.26066184
17      0.55677248
18     -0.60845324
19     -0.47425269
20      0.16224365
21      0.16661850
22      0.17370151
23     -0.00089891
24     -0.01470341
25      0.12485788
26      0.00125636
27      0.07844352
28      0.13937485
29     -0.10794993
30      0.17785139
31     -0.17426783
32     -0.02499398
33      0.02834998
34     -0.08143040
35      0.00386563
36      0.00250412
37     -0.01110193
38      0.00710433
39     -0.01451659
40     -0.00616889
41     -0.05656566
42     -0.05961361
43     -0.41849124
44      0.12558368
45     -0.00195849
46     -0.00335023
47      0.01993603
48      0.01201152
49     -0.01132095
50     -0.01008611
51     -0.19572407
52     -1.35604854
53     -0.00606659
54      0.00719735
55      0.00140158
56     -2.17783178
57      0.10177175
58     -0.08706189
59     -0.20628499
60     -0.08330727
61      0.12834916
62      0.00958381
63     -0.00242090
64     -0.00100334
65      0.97544961
66      0.03478761
67      0.03174604
68     -0.01893771
69      0.06705868
70     -0.06027837
71      0.00072246
72     -0.00545640
73     -0.00127695
74     -0.49824968
75      0.01206802
76     -0.08491884
77      0.01863652
78      0.19131403
79     -0.02979854
80     -0.00281648
81     -0.00234732
82     -0.00959108
83      1.48117793
84     -0.03061222
85     -0.05745226
86     -0.09781332
Ene=     -0.07528583
Spin= Alpha
Occup=      0.00000000
1      0.01753840
2      0.16175811
3     -0.02510220
4      0.15104654
5     -0.03812586
6      0.36962041
7      0.02738070
8      0.07951610
9      0.07695711
10     -0.00769573