Nonadiabatic Molecular Dynamics Start:  2025-11-18 13:02:12


  -------------------------------------------------------------------
                              /\
   |\    /|                  /++\
   ||\  /||                 /++++\
   || \/ || ||             /++++++\
   ||    || ||            /PyRAI2MD\
   ||    || ||           /++++++++++\                    __
            ||          /++++++++++++\    |\ |  /\  |\/| | \
            ||__ __    *==============*   | \| /--\ |  | |_/

                          Python Rapid
                     Artificial Intelligence
                  Ab Initio Molecular Dynamics



                      Author @Jingbai Li
                      
                      
    2022 – present   Hoffmann Institute of Advanced Materials
                     Shenzhen Polytechnic, Shenzhen, China    
                                
    2019 – 2022      Department of Chemistry and Chemical Biology
                     Northeastern University, Boston, USA

                          version:   2.4.0

  With contributions from (in alphabetic order):
    Jingbai Li     - Fewest switches surface hopping
                     Zhu-Nakamura surface hopping
                     Velocity Verlet
                     OpenMolcas interface
                     OpenMolcas/Tinker interface
                     BAGEL interface
                     ORCA interface
                     GFN-xTB interface
                     Adaptive sampling
                     Grid search
                     Multilayer ONIOM (QM:QM' and QM:QM':MM)
                     Periodic boundary condition (coming soon)
                     Wall potential
                     QC/ML hybrid NAMD
                     Excited-state Equivariant Neural Network

    Patrick Reiser - Fully connected neural networks (pyNNsMD)
                     SchNet (pyNNsMD)

  Special acknowledgement to:
    Steven A. Lopez            - Project co-founder
    Pascal Friederich          - Project co-founder




  &control
-------------------------------------------------------
  Title:                      mai       
  NPROCS for ML:              1         
  NPROCS for QC:              32        
  NPROCS for Multiscale:      1          
  Seed:                       1         
  Job: 	                      md        
  QM:          	       	      openqp    
  Ab initio:                  openqp    
-------------------------------------------------------

        
  &molecule
-------------------------------------------------------
  States:                     [3]       
  Spin:                       [0]       
  Interstates:                [[1, 2], [1, 3], [2, 3]]
  QMMM keyfile:               None      
  QMMM xyzfile:               Input     
  High level region:          []         ...
  Middel level region:        []         ...
  Boundary:                   []         ...
  Embedding charges:          False     
  Reading charge:             False     
  Frozen atoms:               []        
  Constrained atoms:          []        
  Restrained bonds:           []        
  Restrained angles:          []        
  Restrained dihedrals:       []        
  Restrained bond value:      []        
  Restrained angle value:     []        
  Restrained dihedral value:  []        
  Bond potential scale:       10.0      
  Angle potential scale:      0.005     
  Dihedral potential scale:   1e-06     
  External potential shape:   ['ellipsoid']
  External potential radius:  []        
  External potential factor:  [40]      
  External potential scale:   [1.0]       
  Compress potential volume:  []        
  Potential center:           []        
  Potential center type:      xyz       
  Constrained groups          []        
  Track geometry type:        None      
  Track indices:              []        
  Track threshold:            []        
  Track stop task:            0         
  Primitive vectors:          []        
  Lattice constant:           []        
-------------------------------------------------------

        
  &initial condition
-------------------------------------------------------
  Generate initial condition: 0         
  Number:                     20        
  Method:                     wigner     
  Format:                     molden    
-------------------------------------------------------

        
  &md
-------------------------------------------------------
  Initial state:              2         
  Initialize random velocity  0         
  Temperature (K):            300       
  Step:                       200       
  Dt (au):                    20.67     
  Only active state grad      1         
  Surface hopping:            fssh      
  NAC type:                   dcm       
  Phase correction            0         
  Population reset            0         
  Substep:                    20        
  Integrate probability       0         
  Decoherence:                0.1       
  Adjust velocity:            1         
  Reflect velocity:           1         
  Maxhop:                     10        
  IC hopping gap threshold    0.5       
  ISC hopping gap threshold   0.5       
  Thermodynamic:              0         
  Thermodynamic delay:        200       
  Print level:                1         
  Direct output:              200       
  Buffer output:              0         
  Record MD data:             whole     
  Record MD steps:            0         
  Checkpoint steps:           1          
  Restart function:           0         
  Additional steps:           0         
-------------------------------------------------------

        
  &md velocity control
-------------------------------------------------------
  Excess kinetic energy       0         
  Scale kinetic energy        1         
  Target kinetic energy       0         
  Gradient descent path       0         
  Reset velocity:             0         
  Reset step:                 0         
-------------------------------------------------------

        
  &openqp
-------------------------------------------------------
  OpenQP:                   /home/hpc/bccc/bccc115h/PyRAI2MD-hiam/openqp
  OpenQP_project:           mai       
  OpenQP_workdir:           /home/vault/bccc/bccc115h/test/pyrai2md-test/traj-test
  Num_omp_threads:          32        
  Guess orbital type:       auto      
  Keep tmp_OpenQP:          1         
  Job distribution:         0         
-------------------------------------------------------
    


 *---------------------------------------------------*
 |                                                   |
 |          Nonadiabatic Molecular Dynamics          |
 |                                                   |
 *---------------------------------------------------*


  State order:         1   2   3
  Multiplicity:        1   1   1

  QMMM key:         None
  QMMM xyz          Input
  Active atoms:     6
  Inactive atoms:   0
  Link atoms:       0
  Highlevel atoms:  6
  Midlevel atoms:   0
  Lowlevel atoms:   0

  Iter:        1  Ekin =           0.0595141304482939 au T =   300.00 K dt =         20 CI:   3
  Root chosen for geometry opt   2

  Gnuplot:           0.0000000000000000           1.0000000000000000           0.0000000000000000         -94.8309237138213774         -94.5727597158296618         -94.5202282076857472         -94.5727597158296618
  **
  **
  **
  A surface hopping is not allowed
  **
  At state:   2


  &coordinates in Angstrom
-------------------------------------------------------------------------------
C          0.0158701500000000      0.0065623080000000      0.0105199810000000
N         -0.0063861770000000     -0.0185356940000000      1.2918367300000000
H          0.9154492270000000      0.0497428390000000     -0.4524579030000000
H          0.8165922010000000      0.0351736010000000      1.8088213700000000
H         -0.8133639720000000      0.1464477190000000      1.8111343700000000
H         -1.0189094100000000     -0.0519581640000000     -0.3987403460000000
-------------------------------------------------------------------------------

  &velocities in Bohr/au
-------------------------------------------------------------------------------
C          0.0001157500000000      0.0000511100000000     -0.0007122600000000
N         -0.0002650200000000     -0.0002398300000000      0.0003871200000000
H         -0.0023099800000000      0.0007564900000000      0.0046051600000000
H          0.0041609100000000      0.0006783000000000      0.0005422300000000
H          0.0013027000000000      0.0018470600000000     -0.0002265500000000
H         -0.0008495700000000     -0.0005581200000000     -0.0018189300000000
-------------------------------------------------------------------------------

  &gradient state               1 in Eh/Bohr
-------------------------------------------------------------------------------
C          0.0000000000000000      0.0000000000000000      0.0000000000000000
N          0.0000000000000000      0.0000000000000000      0.0000000000000000
H          0.0000000000000000      0.0000000000000000      0.0000000000000000
H          0.0000000000000000      0.0000000000000000      0.0000000000000000
H          0.0000000000000000      0.0000000000000000      0.0000000000000000
H          0.0000000000000000      0.0000000000000000      0.0000000000000000
-------------------------------------------------------------------------------

  &gradient state               2 in Eh/Bohr
-------------------------------------------------------------------------------
C          0.0122927096234132      0.0014929924302109     -0.0342197387953798
N          0.0241299397951799      0.0185399737282397     -0.0333706113794001
H         -0.0659823655862164      0.0084813029581028      0.0840581621671355
H         -0.0464899362711351     -0.0213804438453794     -0.0283966544920511
H          0.0395349966134204      0.0053096708433302     -0.0346777599490831
H          0.0365449557227970     -0.0124886964797999      0.0466235540840432
-------------------------------------------------------------------------------

  &gradient state               3 in Eh/Bohr
-------------------------------------------------------------------------------
C          0.0000000000000000      0.0000000000000000      0.0000000000000000
N          0.0000000000000000      0.0000000000000000      0.0000000000000000
H          0.0000000000000000      0.0000000000000000      0.0000000000000000
H          0.0000000000000000      0.0000000000000000      0.0000000000000000
H          0.0000000000000000      0.0000000000000000      0.0000000000000000
H          0.0000000000000000      0.0000000000000000      0.0000000000000000
-------------------------------------------------------------------------------

  &derivative coupling matrix          
-------------------------------------------------------------------------------
      0.0000000000000000       0.0000000000000001      -0.0000000000000003
     -0.0000000000000001       0.0000000000000000       0.0000000000000000
      0.0000000000000003      -0.0000000000000000       0.0000000000000000
-------------------------------------------------------------------------------   

  &surface hopping information
-------------------------------------------------------
  No surface hopping is performed
-------------------------------------------------------

  Iter:        2  Ekin =           0.0518518314627840 au T =   300.00 K dt =         20 CI:   3
  Root chosen for geometry opt   2

  Gnuplot:           0.0000000000000000           1.0000000000000000           0.0000000000000000         -94.8221131221615536         -94.5650974168441536         -94.5183984506610955         -94.5650974168441536
  **
  **
  **
  A surface hopping is not allowed
  **
  At state:   2


  &coordinates in Angstrom
-------------------------------------------------------------------------------
C          0.0170727655224948      0.0071136454605626      0.0029058952306396
N         -0.0093918230376725     -0.0212410605472205      1.2962188292561863
H          0.8942418260675855      0.0574956095581350     -0.4072576699108025
H          0.8649647853339524      0.0439082808047363      1.8164993557373028
H         -0.8015471951879627      0.1663243720639613      1.8107897951316256
H         -1.0304504104577821     -0.0572946014476328     -0.4215043540189854
-------------------------------------------------------------------------------

  &velocities in Bohr/au
-------------------------------------------------------------------------------
C          0.0000857975964383      0.0000480809625590     -0.0006616953061264
N         -0.0002697978430323     -0.0002545506612620      0.0004116720415275
H         -0.0013213249481204      0.0006916943073031      0.0035168516357383
H          0.0044649684478644      0.0008846093252351      0.0007269318966391
H          0.0008135891461060      0.0018217178551432      0.0002112369905712
H         -0.0012296970791710     -0.0004329857971468     -0.0022966537029341
-------------------------------------------------------------------------------

  &gradient state               1 in Eh/Bohr
-------------------------------------------------------------------------------
C          0.0000000000000000      0.0000000000000000      0.0000000000000000
N          0.0000000000000000      0.0000000000000000      0.0000000000000000
H          0.0000000000000000      0.0000000000000000      0.0000000000000000
H          0.0000000000000000      0.0000000000000000      0.0000000000000000
H          0.0000000000000000      0.0000000000000000      0.0000000000000000
H          0.0000000000000000      0.0000000000000000      0.0000000000000000
-------------------------------------------------------------------------------

  &gradient state               2 in Eh/Bohr
-------------------------------------------------------------------------------
C          0.0506219669071017      0.0046216715707860     -0.0687405812404291
N         -0.0103474432407219      0.0196949992998117     -0.0303055917775916
H         -0.1090944305798738      0.0026737570208678      0.1075774241379222
H         -0.0099253501159344     -0.0157663813989529     -0.0048253469122539
H          0.0469952163888125     -0.0017654717551245     -0.0432683752447325
H          0.0316872486750421     -0.0095305501668387      0.0395235523552826
-------------------------------------------------------------------------------

  &gradient state               3 in Eh/Bohr
-------------------------------------------------------------------------------
C          0.0000000000000000      0.0000000000000000      0.0000000000000000
N          0.0000000000000000      0.0000000000000000      0.0000000000000000
H          0.0000000000000000      0.0000000000000000      0.0000000000000000
H          0.0000000000000000      0.0000000000000000      0.0000000000000000
H          0.0000000000000000      0.0000000000000000      0.0000000000000000
H          0.0000000000000000      0.0000000000000000      0.0000000000000000
-------------------------------------------------------------------------------

  &derivative coupling matrix          
-------------------------------------------------------------------------------
      0.0000000000000000      -0.0051533133505903       0.0004677765403611
      0.0051533133505903       0.0000000000000000      -0.0245917207105235
     -0.0004677765403611       0.0245917207105235       0.0000000000000000
-------------------------------------------------------------------------------   

  &surface hopping information
-------------------------------------------------------
  No surface hopping is performed
-------------------------------------------------------

  Iter:        3  Ekin =           0.0446756381378322 au T =   300.00 K dt =         20 CI:   3
  Root chosen for geometry opt   2

  Gnuplot:           0.0000000000000000           1.0000000000000000           0.0000000000000000         -94.8110057189586684         -94.5579212235192017         -94.5140573738139267         -94.5579212235192017
  **
  **
  **
  A surface hopping is not allowed
  **
  At state:   2


  &coordinates in Angstrom
-------------------------------------------------------------------------------
C          0.0177498600034893      0.0076156972562424     -0.0039768736651783
N         -0.0122970850617706     -0.0241125568053934      1.3008559110346645
H          0.8865007735939897      0.0648969314544343     -0.3754084112320244
H          0.9144136576039764      0.0545542021689399      1.8247474706682241
H         -0.7955393274860307      0.1863591083395620      1.8157622885054938
H         -1.0458504199692193     -0.0614443007690060     -0.4490569413263085
-------------------------------------------------------------------------------

  &velocities in Bohr/au
-------------------------------------------------------------------------------
C          0.0000225539945017      0.0000421004655369     -0.0005856672657454
N         -0.0002512404456432     -0.0002695528066138      0.0004340716480328
H          0.0000716983410948      0.0006840241099885      0.0022305391164289
H          0.0043966698986675      0.0010354269208393      0.0006845598476997
H          0.0002824896649866      0.0018582720871731      0.0007113413656957
H         -0.0015259907101548     -0.0003318432136321     -0.0026852250747098
-------------------------------------------------------------------------------

  &gradient state               1 in Eh/Bohr
-------------------------------------------------------------------------------
C          0.0000000000000000      0.0000000000000000      0.0000000000000000
N          0.0000000000000000      0.0000000000000000      0.0000000000000000
H          0.0000000000000000      0.0000000000000000      0.0000000000000000
H          0.0000000000000000      0.0000000000000000      0.0000000000000000
H          0.0000000000000000      0.0000000000000000      0.0000000000000000
H          0.0000000000000000      0.0000000000000000      0.0000000000000000
-------------------------------------------------------------------------------

  &gradient state               2 in Eh/Bohr
-------------------------------------------------------------------------------
C          0.0831749200350829      0.0077030962087248     -0.0875266333142388
N         -0.0330992013016515      0.0199440583495696     -0.0291811875374410
H         -0.1386220878534572     -0.0017803799408647      0.1195839080205565
H          0.0190451988131648     -0.0117595843102871      0.0118880379420307
H          0.0472353420720797     -0.0060112441863693     -0.0461348583814911
H          0.0220403676732595     -0.0082235403882129      0.0314072878489418
-------------------------------------------------------------------------------

  &gradient state               3 in Eh/Bohr
-------------------------------------------------------------------------------
C          0.0000000000000000      0.0000000000000000      0.0000000000000000
N          0.0000000000000000      0.0000000000000000      0.0000000000000000
H          0.0000000000000000      0.0000000000000000      0.0000000000000000
H          0.0000000000000000      0.0000000000000000      0.0000000000000000
H          0.0000000000000000      0.0000000000000000      0.0000000000000000
H          0.0000000000000000      0.0000000000000000      0.0000000000000000
-------------------------------------------------------------------------------

  &derivative coupling matrix          
-------------------------------------------------------------------------------
      0.0000000000000000      -0.0040557659280539       0.0013975927785574
      0.0040557659280539       0.0000000000000000      -0.0129565492456695
     -0.0013975927785574       0.0129565492456695       0.0000000000000000
-------------------------------------------------------------------------------   

  &surface hopping information
-------------------------------------------------------
  No surface hopping is performed
-------------------------------------------------------

  Iter:        4  Ekin =           0.0431968385084218 au T =   300.00 K dt =         20 CI:   3
  Root chosen for geometry opt   2

  Gnuplot:           0.0000002794313557           0.9999480370570382           0.0000516835131163         -94.8036150859461060         -94.5564424238897914         -94.5130467750086609         -94.5564424238897914
  **
  **
  **
  A surface hopping is not allowed
  **
  At state:   2


  &coordinates in Angstrom
-------------------------------------------------------------------------------
C          0.0175671149895875      0.0080364240265053     -0.0099310459459348
N         -0.0148986338337197     -0.0271492506149684      1.3057330236428635
H          0.8958133453259142      0.0724883840853326     -0.3583676241384766
H          0.9613331435521233      0.0666032737689396      1.8315038728253132
H         -0.7953554487399044      0.2070548872699806      1.8263813226114431
H         -1.0638978201526448     -0.0645681030796884     -0.4803604286982505
-------------------------------------------------------------------------------

  &velocities in Bohr/au
-------------------------------------------------------------------------------
C         -0.0000605209114226      0.0000341150674188     -0.0005021235108686
N         -0.0002201503630485     -0.0002849777988654      0.0004579171935650
H          0.0016340456906827      0.0007135375536673      0.0009038130122771
H          0.0040632930758962      0.0011526409540173      0.0004920877224958
H         -0.0002068928111122      0.0019305539514791      0.0012110652681773
H         -0.0017056513463419     -0.0002398550002079     -0.0029932628863096
-------------------------------------------------------------------------------

  &gradient state               1 in Eh/Bohr
-------------------------------------------------------------------------------
C          0.0000000000000000      0.0000000000000000      0.0000000000000000
N          0.0000000000000000      0.0000000000000000      0.0000000000000000
H          0.0000000000000000      0.0000000000000000      0.0000000000000000
H          0.0000000000000000      0.0000000000000000      0.0000000000000000
H          0.0000000000000000      0.0000000000000000      0.0000000000000000
H          0.0000000000000000      0.0000000000000000      0.0000000000000000
-------------------------------------------------------------------------------

  &gradient state               2 in Eh/Bohr
-------------------------------------------------------------------------------
C          0.0928529190947944      0.0091950864842565     -0.0891828252079705
N         -0.0435683965173436      0.0183483272584963     -0.0300263546553206
H         -0.1392254091071519     -0.0035000169470141      0.1162542471793835
H          0.0400373762931272     -0.0091336127504096      0.0223089297623282
H          0.0397821510483736     -0.0069295706507460     -0.0427679262007197
H          0.0099809888940334     -0.0081200011281355      0.0234982476258794
-------------------------------------------------------------------------------

  &gradient state               3 in Eh/Bohr
-------------------------------------------------------------------------------
C          0.0000000000000000      0.0000000000000000      0.0000000000000000
N          0.0000000000000000      0.0000000000000000      0.0000000000000000
H          0.0000000000000000      0.0000000000000000      0.0000000000000000
H          0.0000000000000000      0.0000000000000000      0.0000000000000000
H          0.0000000000000000      0.0000000000000000      0.0000000000000000
H          0.0000000000000000      0.0000000000000000      0.0000000000000000
-------------------------------------------------------------------------------

  &derivative coupling matrix          
-------------------------------------------------------------------------------
      0.0000000000000000      -0.0032652226964018       0.0034039150590745
      0.0032652226964018       0.0000000000000000      -0.0051848701598333
     -0.0034039150590745       0.0051848701598333       0.0000000000000000
-------------------------------------------------------------------------------   

  &surface hopping information
-------------------------------------------------------

    Random number:             0.79595506
    Accumulated probability:   0.00000346
    state mult  level   probability 
    1     1     1       0.00000000
    2     1     2       0.00000000
    3     1     3       0.00000346

    
-------------------------------------------------------

  Iter:        5  Ekin =           0.0478102682285169 au T =   300.00 K dt =         20 CI:   3
  Root chosen for geometry opt   2

  Gnuplot:           0.0000003529894860           0.9999367380660260           0.0000629089476703         -94.8010353577317773         -94.5610558536098864         -94.5164340901051219         -94.5610558536098864
  **
  **
  **
  A surface hopping is not allowed
  **
  At state:   2


  &coordinates in Angstrom
-------------------------------------------------------------------------------
C          0.0164257201240730      0.0083621024275514     -0.0149628576747511
N         -0.0171137652526052     -0.0303475995262627      1.3108747029400882
H          0.9222521364363685      0.0805084532914805     -0.3556338436493504
H          1.0033146387207263      0.0797728880410845      1.8355138811899991
H         -0.8000659450718962      0.2285977894239821      1.8422592427065239
H         -1.0831684463336990     -0.0666920996468988     -0.5145466813875982
-------------------------------------------------------------------------------

  &velocities in Bohr/au
-------------------------------------------------------------------------------
C         -0.0001409273295223      0.0000259182163577     -0.0004247915671996
N         -0.0001848920352639     -0.0002992046540530      0.0004848890263308
H          0.0030468980669523      0.0007466615723347     -0.0003152353108479
H          0.0035411493868227      0.0012501824736430      0.0002087457555674
H         -0.0005816428209944      0.0020018719633751      0.0016496649536987
H         -0.0017528909279200     -0.0001451758813727     -0.0032265402366154
-------------------------------------------------------------------------------

  &gradient state               1 in Eh/Bohr
-------------------------------------------------------------------------------
C          0.0000000000000000      0.0000000000000000      0.0000000000000000
N          0.0000000000000000      0.0000000000000000      0.0000000000000000
H          0.0000000000000000      0.0000000000000000      0.0000000000000000
H          0.0000000000000000      0.0000000000000000      0.0000000000000000
H          0.0000000000000000      0.0000000000000000      0.0000000000000000
H          0.0000000000000000      0.0000000000000000      0.0000000000000000
-------------------------------------------------------------------------------

  &gradient state               2 in Eh/Bohr
-------------------------------------------------------------------------------
C          0.0765809085098432      0.0083368175588824     -0.0773798394360856
N         -0.0449274389255683      0.0145535174926019     -0.0329685728522433
H         -0.1103210107864059     -0.0019857198556774      0.1003114417147533
H          0.0547084343770337     -0.0075329339859857      0.0281795512160019
H          0.0265308251025211     -0.0046685309967023     -0.0343199059170303
H         -0.0025292949112776     -0.0087915472723334      0.0162331045186044
-------------------------------------------------------------------------------

  &gradient state               3 in Eh/Bohr
-------------------------------------------------------------------------------
C          0.0000000000000000      0.0000000000000000      0.0000000000000000
N          0.0000000000000000      0.0000000000000000      0.0000000000000000
H          0.0000000000000000      0.0000000000000000      0.0000000000000000
H          0.0000000000000000      0.0000000000000000      0.0000000000000000
H          0.0000000000000000      0.0000000000000000      0.0000000000000000
H          0.0000000000000000      0.0000000000000000      0.0000000000000000
-------------------------------------------------------------------------------

  &derivative coupling matrix          
-------------------------------------------------------------------------------
      0.0000000000000000      -0.0026659480939473       0.0059972181869768
      0.0026659480939473       0.0000000000000000      -0.0030742099223763
     -0.0059972181869768       0.0030742099223763       0.0000000000000000
-------------------------------------------------------------------------------   

  &surface hopping information
-------------------------------------------------------

    Random number:             0.22768821
    Accumulated probability:   0.00000131
    state mult  level   probability 
    1     1     1       0.00000004
    2     1     2       0.00000000
    3     1     3       0.00000127

    
-------------------------------------------------------

  Iter:        6  Ekin =           0.0541972046724908 au T =   300.00 K dt =         20 CI:   3
  Root chosen for geometry opt   2

  Gnuplot:           0.0000001884040525           0.9999572811611870           0.0000425304335637         -94.7994494535687409         -94.5674427900538603         -94.5204828404261264         -94.5674427900538603
  **
  **
  **
  A surface hopping is not allowed
  **
  At state:   2


  &coordinates in Angstrom
-------------------------------------------------------------------------------
C          0.0144888467862518      0.0086025542552662     -0.0192097456757051
N         -0.0189372207787229     -0.0336847620447501      1.3163244289931273
H          0.9623665786135849      0.0887976733095156     -0.3652532923565657
H          1.0386822822725523      0.0939109434028454      1.8360634953209836
H         -0.8080602421084794      0.2507816706617914      1.8624148669235514
H         -1.1021861239587489     -0.0677391721763337     -0.5508375763943366
-------------------------------------------------------------------------------

  &velocities in Bohr/au
-------------------------------------------------------------------------------
C         -0.0001994408673881      0.0000193054604184     -0.0003613280809753
N         -0.0001502908968059     -0.0003094708492184      0.0005146354482844
H          0.0040491730027833      0.0007494026670981     -0.0013248098797529
H          0.0028755115705785      0.0013332461168209     -0.0001250457847044
H         -0.0007930467247849      0.0020332053059040      0.0019764082635004
H         -0.0016620366995102     -0.0000400171340663     -0.0033800417646822
-------------------------------------------------------------------------------

  &gradient state               1 in Eh/Bohr
-------------------------------------------------------------------------------
C          0.0000000000000000      0.0000000000000000      0.0000000000000000
N          0.0000000000000000      0.0000000000000000      0.0000000000000000
H          0.0000000000000000      0.0000000000000000      0.0000000000000000
H          0.0000000000000000      0.0000000000000000      0.0000000000000000
H          0.0000000000000000      0.0000000000000000      0.0000000000000000
H          0.0000000000000000      0.0000000000000000      0.0000000000000000
-------------------------------------------------------------------------------

  &gradient state               2 in Eh/Bohr
-------------------------------------------------------------------------------
C          0.0463349988779327      0.0057734810545949     -0.0589610934229459
N         -0.0414750548803814      0.0089185053695124     -0.0373766765390489
H         -0.0660938822909136      0.0018279462151073      0.0785993691107800
H          0.0649006612052196     -0.0066487184580007      0.0311106404757808
H          0.0107061569468976     -0.0000081067594710     -0.0229029892862358
H         -0.0143547060156783     -0.0099223464984579      0.0095716507678085
-------------------------------------------------------------------------------

  &gradient state               3 in Eh/Bohr
-------------------------------------------------------------------------------
C          0.0000000000000000      0.0000000000000000      0.0000000000000000
N          0.0000000000000000      0.0000000000000000      0.0000000000000000
H          0.0000000000000000      0.0000000000000000      0.0000000000000000
H          0.0000000000000000      0.0000000000000000      0.0000000000000000
H          0.0000000000000000      0.0000000000000000      0.0000000000000000
H          0.0000000000000000      0.0000000000000000      0.0000000000000000
-------------------------------------------------------------------------------

  &derivative coupling matrix          
-------------------------------------------------------------------------------
      0.0000000000000000      -0.0021095990163296       0.0086550073495882
      0.0021095990163296       0.0000000000000000      -0.0044443239617412
     -0.0086550073495882       0.0044443239617412       0.0000000000000000
-------------------------------------------------------------------------------   

  &surface hopping information
-------------------------------------------------------

    Random number:             0.36673433
    Accumulated probability:   0.00000025
    state mult  level   probability 
    1     1     1       0.00000004
    2     1     2       0.00000000
    3     1     3       0.00000021

    
-------------------------------------------------------

  Iter:        7  Ekin =           0.0580006265531665 au T =   300.00 K dt =         20 CI:   3
  Root chosen for geometry opt   2

  Gnuplot:           0.0000000883256552           0.9999793397491885           0.0000205719256434         -94.7949078401606187         -94.5712462119345361         -94.5213404765551672         -94.5712462119345361
  **
  **
  **
  A surface hopping is not allowed
  **
  At state:   2


  &coordinates in Angstrom
-------------------------------------------------------------------------------
C          0.0120681103752388      0.0087839099719465     -0.0228575624501829
N         -0.0203974908283063     -0.0371092688230060      1.3221190405520755
H          1.0107230500596303      0.0968822507519257     -0.3845797889962889
H          1.0661420693117305      0.1089031578415430      1.8327817393897032
H         -0.8173933272902972      0.2730215596292428      1.8854420468604229
H         -1.1194825048290971     -0.0675664392735334     -0.5883976585626068
-------------------------------------------------------------------------------

  &velocities in Bohr/au
-------------------------------------------------------------------------------
C         -0.0002292800183386      0.0000153226214785     -0.0003148865407940
N         -0.0001186012369048     -0.0003140741744108      0.0005470247969541
H          0.0045490581532134      0.0007032592070030     -0.0020889432255999
H          0.0021064618140608      0.0014056335407191     -0.0004813116307407
H         -0.0008284162714016      0.0020004351197076      0.0021668650291265
H         -0.0014421069598740      0.0000791418011932     -0.0034539576804073
-------------------------------------------------------------------------------

  &gradient state               1 in Eh/Bohr
-------------------------------------------------------------------------------
C          0.0000000000000000      0.0000000000000000      0.0000000000000000
N          0.0000000000000000      0.0000000000000000      0.0000000000000000
H          0.0000000000000000      0.0000000000000000      0.0000000000000000
H          0.0000000000000000      0.0000000000000000      0.0000000000000000
H          0.0000000000000000      0.0000000000000000      0.0000000000000000
H          0.0000000000000000      0.0000000000000000      0.0000000000000000
-------------------------------------------------------------------------------

  &gradient state               2 in Eh/Bohr
-------------------------------------------------------------------------------
C          0.0166845858017584      0.0026771813251659     -0.0396927815520227
N         -0.0369334854622983      0.0021432366279379     -0.0421013057881456
H         -0.0224570788958602      0.0064260720209933      0.0571079090238429
H          0.0719797049568247     -0.0061209500957310      0.0321959744493967
H         -0.0044768030695264      0.0059769209343667     -0.0108041133550243
H         -0.0248496311404471     -0.0112574181292758      0.0033237923146576
-------------------------------------------------------------------------------

  &gradient state               3 in Eh/Bohr
-------------------------------------------------------------------------------
C          0.0000000000000000      0.0000000000000000      0.0000000000000000
N          0.0000000000000000      0.0000000000000000      0.0000000000000000
H          0.0000000000000000      0.0000000000000000      0.0000000000000000
H          0.0000000000000000      0.0000000000000000      0.0000000000000000
H          0.0000000000000000      0.0000000000000000      0.0000000000000000
H          0.0000000000000000      0.0000000000000000      0.0000000000000000
-------------------------------------------------------------------------------

  &derivative coupling matrix          
-------------------------------------------------------------------------------
      0.0000000000000000      -0.0015191696522978       0.0111093801390632
      0.0015191696522978       0.0000000000000000      -0.0063729099602281
     -0.0111093801390632       0.0063729099602281       0.0000000000000000
-------------------------------------------------------------------------------   

  &surface hopping information
-------------------------------------------------------

    Random number:             0.28705055
    Accumulated probability:   0.00000017
    state mult  level   probability 
    1     1     1       0.00000002
    2     1     2       0.00000000
    3     1     3       0.00000015

    
-------------------------------------------------------

  Iter:        8  Ekin =           0.0578682309393059 au T =   300.00 K dt =         20 CI:   3
  Root chosen for geometry opt   2

  Gnuplot:           0.0000000430434878           0.9999796251249791           0.0000203318311185         -94.7864208384864639         -94.5711138163206755         -94.5180613714083790         -94.5711138163206755
  **
  **
  **
  A surface hopping is not allowed
  **
  At state:   2


  &coordinates in Angstrom
-------------------------------------------------------------------------------
C          0.0094740793982969      0.0089376876133548     -0.0260968820564593
N         -0.0215312436652833     -0.0405541305080261      1.3282888475763346
H          1.0618626822773525      0.1041792201277381     -0.4109422470196747
H          1.0847544000509364      0.1246546832650990      1.8255363421622741
H         -0.8261791995805668      0.2945347934708440      1.9098081119211057
H         -1.1337276032587016     -0.0660081982932915     -0.6263818582754803
-------------------------------------------------------------------------------

  &velocities in Bohr/au
-------------------------------------------------------------------------------
C         -0.0002346349116907      0.0000139413922913     -0.0002852926734071
N         -0.0000900727158934     -0.0003126344371071      0.0005822048913933
H          0.0046022282881952      0.0006062793257715     -0.0026257870830434
H          0.0012684498363016      0.0014711245438433     -0.0008420646023072
H         -0.0007065438145160      0.0018957822886208      0.0022235293344069
H         -0.0011119196041168      0.0002133485952651     -0.0034544633140664
-------------------------------------------------------------------------------

  &gradient state               1 in Eh/Bohr
-------------------------------------------------------------------------------
C          0.0000000000000000      0.0000000000000000      0.0000000000000000
N          0.0000000000000000      0.0000000000000000      0.0000000000000000
H          0.0000000000000000      0.0000000000000000      0.0000000000000000
H          0.0000000000000000      0.0000000000000000      0.0000000000000000
H          0.0000000000000000      0.0000000000000000      0.0000000000000000
H          0.0000000000000000      0.0000000000000000      0.0000000000000000
-------------------------------------------------------------------------------

  &gradient state               2 in Eh/Bohr
-------------------------------------------------------------------------------
C         -0.0048558535429239      0.0002201741314596     -0.0224129120015579
N         -0.0333309832316039     -0.0049475293260701     -0.0462147402917781
H          0.0122065561325275      0.0107110543409438      0.0387931024510035
H          0.0767916522785805     -0.0057776455955185      0.0320886022844611
H         -0.0170686321141127      0.0123009797119840      0.0003444712072387
H         -0.0336621187122677     -0.0126403258698772     -0.0026354041280827
-------------------------------------------------------------------------------

  &gradient state               3 in Eh/Bohr
-------------------------------------------------------------------------------
C          0.0000000000000000      0.0000000000000000      0.0000000000000000
N          0.0000000000000000      0.0000000000000000      0.0000000000000000
H          0.0000000000000000      0.0000000000000000      0.0000000000000000
H          0.0000000000000000      0.0000000000000000      0.0000000000000000
H          0.0000000000000000      0.0000000000000000      0.0000000000000000
H          0.0000000000000000      0.0000000000000000      0.0000000000000000
-------------------------------------------------------------------------------

  &derivative coupling matrix          
-------------------------------------------------------------------------------
      0.0000000000000000      -0.0009681635964875       0.0133247266659889
      0.0009681635964875       0.0000000000000000      -0.0070460582559719
     -0.0133247266659889       0.0070460582559719       0.0000000000000000
-------------------------------------------------------------------------------   

  &surface hopping information
-------------------------------------------------------

    Random number:             0.59440339
    Accumulated probability:   0.00000145
    state mult  level   probability 
    1     1     1       0.00000001
    2     1     2       0.00000000
    3     1     3       0.00000144

    
-------------------------------------------------------

  Iter:        9  Ekin =           0.0549476131394613 au T =   300.00 K dt =         20 CI:   3
  Root chosen for geometry opt   2

  Gnuplot:           0.0000000120855950           0.9999707572405896           0.0000292306746428         -94.7754294147579515         -94.5681931985208308         -94.5120512950185372         -94.5681931985208308
  **
  **
  **
  A surface hopping is not allowed
  **
  At state:   2


  &coordinates in Angstrom
-------------------------------------------------------------------------------
C          0.0069326921314277      0.0090890430819379     -0.0291017193375100
N         -0.0223688985149774     -0.0439518506894254      1.3348616695127602
H          1.1114513131432582      0.1101517931570948     -0.4420499872436923
H          1.0939044358912198      0.1411014345895957      1.8143516008821949
H         -0.8328573431478391      0.3145142551583395      1.9341080915989670
H         -1.1438189182787750     -0.0628969113651695     -0.6640049660932977
-------------------------------------------------------------------------------

  &velocities in Bohr/au
-------------------------------------------------------------------------------
C         -0.0002234605145685      0.0000144554130586     -0.0002707391004030
N         -0.0000638754693857     -0.0003054461695682      0.0006199250009595
H          0.0043223117441857      0.0004652550427886     -0.0029763614936500
H          0.0003875893176451      0.0015326341543458     -0.0011958909214818
H         -0.0004619768181450      0.0017214760502466      0.0021646604120760
H         -0.0006932411681263      0.0003624842423873     -0.0033885073903252
-------------------------------------------------------------------------------

  &gradient state               1 in Eh/Bohr
-------------------------------------------------------------------------------
C          0.0000000000000000      0.0000000000000000      0.0000000000000000
N          0.0000000000000000      0.0000000000000000      0.0000000000000000
H          0.0000000000000000      0.0000000000000000      0.0000000000000000
H          0.0000000000000000      0.0000000000000000      0.0000000000000000
H          0.0000000000000000      0.0000000000000000      0.0000000000000000
H          0.0000000000000000      0.0000000000000000      0.0000000000000000
-------------------------------------------------------------------------------

  &gradient state               2 in Eh/Bohr
-------------------------------------------------------------------------------
C         -0.0182041454719100     -0.0013487808427292     -0.0076761856165346
N         -0.0311864524603742     -0.0118343760817288     -0.0489580361489148
H          0.0365650862820917      0.0142547091216635      0.0242211181897700
H          0.0797283301164584     -0.0055110483036531      0.0310938951273385
H         -0.0263068647181433      0.0182928252420327      0.0096235740161910
H         -0.0406156126210453     -0.0139581210405536     -0.0083109042985399
-------------------------------------------------------------------------------

  &gradient state               3 in Eh/Bohr
-------------------------------------------------------------------------------
C          0.0000000000000000      0.0000000000000000      0.0000000000000000
N          0.0000000000000000      0.0000000000000000      0.0000000000000000
H          0.0000000000000000      0.0000000000000000      0.0000000000000000
H          0.0000000000000000      0.0000000000000000      0.0000000000000000
H          0.0000000000000000      0.0000000000000000      0.0000000000000000
H          0.0000000000000000      0.0000000000000000      0.0000000000000000
-------------------------------------------------------------------------------

  &derivative coupling matrix          
-------------------------------------------------------------------------------
      0.0000000000000000      -0.0004515225220972       0.0153509293454880
      0.0004515225220972       0.0000000000000000      -0.0057310569877322
     -0.0153509293454880       0.0057310569877322       0.0000000000000000
-------------------------------------------------------------------------------   

  &surface hopping information
-------------------------------------------------------

    Random number:             0.95248014
    Accumulated probability:   0.00000134
    state mult  level   probability 
    1     1     1       0.00000000
    2     1     2       0.00000000
    3     1     3       0.00000134

    
-------------------------------------------------------

  Iter:       10  Ekin =           0.0512261222736328 au T =   300.00 K dt =         20 CI:   3
  Root chosen for geometry opt   2

  Gnuplot:           0.0000000001071526           0.9999801720405230           0.0000198278516977         -94.7641093623007009         -94.5644717076550023         -94.5054003454832667         -94.5644717076550023
  **
  **
  **
  A surface hopping is not allowed
  **
  At state:   2


  &coordinates in Angstrom
-------------------------------------------------------------------------------
C          0.0045824504013450      0.0092541216724863     -0.0320234558706180
N         -0.0229295000813861     -0.0472404542326148      1.3418592231591759
H          1.1564796015239376      0.1143638161073810     -0.4760958434654088
H          1.0932388660818284      0.1582045821615323      1.7993578706770135
H         -0.8362920340735946      0.3322185076661971      1.9571932871531295
H         -1.1489028954414664     -0.0580732911602622     -0.7005574728752695
-------------------------------------------------------------------------------

  &velocities in Bohr/au
-------------------------------------------------------------------------------
C         -0.0002026350667010      0.0000160501383897     -0.0002688621126654
N         -0.0000390244198770     -0.0002929436814713      0.0006590540182267
H          0.0038167102303117      0.0002889429960250     -0.0031812984733895
H         -0.0005148131690535      0.0015916972499608     -0.0015337851665534
H         -0.0001325090637756      0.0014841058492629      0.0020140778156399
H         -0.0002075439218322      0.0005255730083061     -0.0032612533303645
-------------------------------------------------------------------------------

  &gradient state               1 in Eh/Bohr
-------------------------------------------------------------------------------
C          0.0000000000000000      0.0000000000000000      0.0000000000000000
N          0.0000000000000000      0.0000000000000000      0.0000000000000000
H          0.0000000000000000      0.0000000000000000      0.0000000000000000
H          0.0000000000000000      0.0000000000000000      0.0000000000000000
H          0.0000000000000000      0.0000000000000000      0.0000000000000000
H          0.0000000000000000      0.0000000000000000      0.0000000000000000
-------------------------------------------------------------------------------

  &gradient state               2 in Eh/Bohr
-------------------------------------------------------------------------------
C         -0.0254108444142023     -0.0020695481499922      0.0043681795268000
N         -0.0300963262820404     -0.0182044383592319     -0.0496230952327830
H          0.0525300955313348      0.0170317301044842      0.0128785914795715
H          0.0808182585329194     -0.0053219299703868      0.0293007130452343
H         -0.0322419422229223      0.0235998621290168      0.0167284746378180
H         -0.0456937614309427     -0.0151472715720219     -0.0136333336165981
-------------------------------------------------------------------------------

  &gradient state               3 in Eh/Bohr
-------------------------------------------------------------------------------
C          0.0000000000000000      0.0000000000000000      0.0000000000000000
N          0.0000000000000000      0.0000000000000000      0.0000000000000000
H          0.0000000000000000      0.0000000000000000      0.0000000000000000
H          0.0000000000000000      0.0000000000000000      0.0000000000000000
H          0.0000000000000000      0.0000000000000000      0.0000000000000000
H          0.0000000000000000      0.0000000000000000      0.0000000000000000
-------------------------------------------------------------------------------

  &derivative coupling matrix          
-------------------------------------------------------------------------------
      0.0000000000000000      -0.0000301618680254       0.0174131189906367
      0.0000301618680254       0.0000000000000000      -0.0024471506121737
     -0.0174131189906367       0.0024471506121737       0.0000000000000000
-------------------------------------------------------------------------------   

  &surface hopping information
-------------------------------------------------------

    Random number:             0.85270661
    Accumulated probability:   0.00000000
    state mult  level   probability 
    1     1     1       0.00000000
    2     1     2       0.00000000
    3     1     3       0.00000000

    
-------------------------------------------------------

  Iter:       11  Ekin =           0.0485064342435919 au T =   300.00 K dt =         20 CI:   3
  Root chosen for geometry opt   2

  Gnuplot:           0.0000000051774828           0.9999885638380874           0.0000114309846010         -94.7543237058543895         -94.5617520196249615         -94.4998949853899433         -94.5617520196249615
  **
  **
  **
  A surface hopping is not allowed
  **
  At state:   2


  &coordinates in Angstrom
-------------------------------------------------------------------------------
C          0.0024972084778973      0.0094403649317212     -0.0349868483292299
N         -0.0232231049426740     -0.0503641016967414      1.3492877181342022
H          1.1949953714961397      0.1164764730683066     -0.5116855029786876
H          1.0826356785476154      0.1759421324436710      1.7807785419589195
H         -0.8357578371042411      0.3469998823584279      1.9781942874072678
H         -1.1483618519756098     -0.0513926316517378     -0.7353906155386443
-------------------------------------------------------------------------------

  &velocities in Bohr/au
-------------------------------------------------------------------------------
C         -0.0001768672802423      0.0000179755388457     -0.0002771130691878
N         -0.0000150019573896     -0.0002757139407994      0.0006977953918148
H          0.0031669538655986      0.0000850906376041     -0.0032737202553391
H         -0.0014168005419370      0.0016503827504385     -0.0018470288407413
H          0.0002470119386576      0.0011924158772074      0.0017965488884675
H          0.0003247511425074      0.0007012536200976     -0.0030782058399589
-------------------------------------------------------------------------------

  &gradient state               1 in Eh/Bohr
-------------------------------------------------------------------------------
C          0.0000000000000000      0.0000000000000000      0.0000000000000000
N          0.0000000000000000      0.0000000000000000      0.0000000000000000
H          0.0000000000000000      0.0000000000000000      0.0000000000000000
H          0.0000000000000000      0.0000000000000000      0.0000000000000000
H          0.0000000000000000      0.0000000000000000      0.0000000000000000
H          0.0000000000000000      0.0000000000000000      0.0000000000000000
-------------------------------------------------------------------------------

  &gradient state               2 in Eh/Bohr
-------------------------------------------------------------------------------
C         -0.0288776489659811     -0.0020399668221527      0.0135824642143518
N         -0.0292227846329503     -0.0238161312678837     -0.0474727018310954
H          0.0625391208199759      0.0191992793990980      0.0040201312954027
H          0.0797492044512169     -0.0053472354589436      0.0266546929330500
H         -0.0352687680116213      0.0280899548027347      0.0216899938510022
H         -0.0489899141813801     -0.0161872108119816     -0.0184718311376844
-------------------------------------------------------------------------------

  &gradient state               3 in Eh/Bohr
-------------------------------------------------------------------------------
C          0.0000000000000000      0.0000000000000000      0.0000000000000000
N          0.0000000000000000      0.0000000000000000      0.0000000000000000
H          0.0000000000000000      0.0000000000000000      0.0000000000000000
H          0.0000000000000000      0.0000000000000000      0.0000000000000000
H          0.0000000000000000      0.0000000000000000      0.0000000000000000
H          0.0000000000000000      0.0000000000000000      0.0000000000000000
-------------------------------------------------------------------------------

  &derivative coupling matrix          
-------------------------------------------------------------------------------
      0.0000000000000000       0.0002807367896018       0.0196820078012528
     -0.0002807367896018       0.0000000000000000       0.0023385986118491
     -0.0196820078012528      -0.0023385986118491       0.0000000000000000
-------------------------------------------------------------------------------   

  &surface hopping information
-------------------------------------------------------

    Random number:             0.78943974
    Accumulated probability:   0.00000080
    state mult  level   probability 
    1     1     1       0.00000000
    2     1     2       0.00000000
    3     1     3       0.00000080

    
-------------------------------------------------------

  Iter:       12  Ekin =           0.0479798385176195 au T =   300.00 K dt =         20 CI:   3
  Root chosen for geometry opt   2

  Gnuplot:           0.0000000219210679           0.9999589684812236           0.0000410095962190         -94.7472082056732319         -94.5612254238989891         -94.4966150822969979         -94.5612254238989891
  **
  **
  **
  A surface hopping is not allowed
  **
  At state:   2


  &coordinates in Angstrom
-------------------------------------------------------------------------------
C          0.0007117165721669      0.0096475156694569     -0.0380880650506923
N         -0.0232578173591329     -0.0532744435401106      1.3571304492742682
H          1.2257882687133834      0.1162260215366125     -0.5477410891108681
H          1.0622322390824244      0.1943231470790311      1.7589357134101116
H         -0.8308861870120990      0.3583144846497948      1.9965106925479286
H         -1.1417957288041698     -0.0427263818482279     -0.7679238928347822
-------------------------------------------------------------------------------

  &velocities in Bohr/au
-------------------------------------------------------------------------------
C         -0.0001488272217603      0.0000196245414503     -0.0002926046158400
N          0.0000079389003843     -0.0002545413614877      0.0007336100618961
H          0.0024292976671052     -0.0001406125661677     -0.0032788133297090
H         -0.0022911666502390      0.0017131321499661     -0.0021256910085694
H          0.0006467562452591      0.0008557654069269      0.0015353023301572
H          0.0008848617960789      0.0008880736692704     -0.0028462603284170
-------------------------------------------------------------------------------

  &gradient state               1 in Eh/Bohr
-------------------------------------------------------------------------------
C          0.0000000000000000      0.0000000000000000      0.0000000000000000
N          0.0000000000000000      0.0000000000000000      0.0000000000000000
H          0.0000000000000000      0.0000000000000000      0.0000000000000000
H          0.0000000000000000      0.0000000000000000      0.0000000000000000
H          0.0000000000000000      0.0000000000000000      0.0000000000000000
H          0.0000000000000000      0.0000000000000000      0.0000000000000000
-------------------------------------------------------------------------------

  &gradient state               2 in Eh/Bohr
-------------------------------------------------------------------------------
C         -0.0304341960051545     -0.0014654554018925      0.0194154370129729
N         -0.0274595601508752     -0.0283102895046965     -0.0415329227036656
H          0.0684848831758540      0.0209359745002754     -0.0029462610955133
H          0.0758230076213091     -0.0058970219121905      0.0229981299047137
H         -0.0358354451235501      0.0317195779662600      0.0246784961289341
H         -0.0506382438185389     -0.0170733441172285     -0.0226198743556032
-------------------------------------------------------------------------------

  &gradient state               3 in Eh/Bohr
-------------------------------------------------------------------------------
C          0.0000000000000000      0.0000000000000000      0.0000000000000000
N          0.0000000000000000      0.0000000000000000      0.0000000000000000
H          0.0000000000000000      0.0000000000000000      0.0000000000000000
H          0.0000000000000000      0.0000000000000000      0.0000000000000000
H          0.0000000000000000      0.0000000000000000      0.0000000000000000
H          0.0000000000000000      0.0000000000000000      0.0000000000000000
-------------------------------------------------------------------------------

  &derivative coupling matrix          
-------------------------------------------------------------------------------
      0.0000000000000000       0.0005210505491272       0.0222480200204916
     -0.0005210505491272       0.0000000000000000       0.0082817375263012
     -0.0222480200204916      -0.0082817375263012       0.0000000000000000
-------------------------------------------------------------------------------   

  &surface hopping information
-------------------------------------------------------

    Random number:             0.69193220
    Accumulated probability:   0.00000444
    state mult  level   probability 
    1     1     1       0.00000000
    2     1     2       0.00000000
    3     1     3       0.00000443

    
-------------------------------------------------------

  Iter:       13  Ekin =           0.0501016227971860 au T =   300.00 K dt =         20 CI:   3
  Root chosen for geometry opt   2

  Gnuplot:           0.0000000356429843           0.9998945633706171           0.0001054009845163         -94.7430761050582220         -94.5633472081785555         -94.4958191747219587         -94.5633472081785555
  **
  **
  **
  A surface hopping is not allowed
  **
  At state:   2


  &coordinates in Angstrom
-------------------------------------------------------------------------------
C         -0.0007590338946222      0.0098697370765199     -0.0413888461440360
N         -0.0230494069893229     -0.0559333003757985      1.3653386269679388
H          1.2481468172164121      0.1133999619929246     -0.5834237963466640
H          1.0325064492253846      0.2134243445717051      1.7342698115592075
H         -0.8216072330306359      0.3657234703285119      2.0117856992669765
H         -1.1290016540216572     -0.0319621600109049     -0.7976649318565333
-------------------------------------------------------------------------------

  &velocities in Bohr/au
-------------------------------------------------------------------------------
C         -0.0001198945311667      0.0000205783661845     -0.0003115030707950
N          0.0000285346798225     -0.0002305900423173      0.0007629030940222
H          0.0016421872630105     -0.0003840392848461     -0.0032161586638182
H         -0.0030999862220599      0.0017888208653772     -0.0023572249310590
H          0.0010415892326184      0.0004841318499917      0.0012509847909139
H          0.0014556146376198      0.0010842415363803     -0.0025748632361098
-------------------------------------------------------------------------------

  &gradient state               1 in Eh/Bohr
-------------------------------------------------------------------------------
C          0.0000000000000000      0.0000000000000000      0.0000000000000000
N          0.0000000000000000      0.0000000000000000      0.0000000000000000
H          0.0000000000000000      0.0000000000000000      0.0000000000000000
H          0.0000000000000000      0.0000000000000000      0.0000000000000000
H          0.0000000000000000      0.0000000000000000      0.0000000000000000
H          0.0000000000000000      0.0000000000000000      0.0000000000000000
-------------------------------------------------------------------------------

  &gradient state               2 in Eh/Bohr
-------------------------------------------------------------------------------
C         -0.0309178476967402     -0.0005452527681244      0.0204700339556885
N         -0.0234073480486742     -0.0309930894210915     -0.0304060754600428
H          0.0715231631774937      0.0223275265948963     -0.0083239661966574
H          0.0678519010811329     -0.0074870216956056      0.0180706996187650
H         -0.0343200128722918      0.0343732683803355      0.0259215178102088
H         -0.0507773724549700     -0.0177594781225279     -0.0257368325628984
-------------------------------------------------------------------------------

  &gradient state               3 in Eh/Bohr
-------------------------------------------------------------------------------
C          0.0000000000000000      0.0000000000000000      0.0000000000000000
N          0.0000000000000000      0.0000000000000000      0.0000000000000000
H          0.0000000000000000      0.0000000000000000      0.0000000000000000
H          0.0000000000000000      0.0000000000000000      0.0000000000000000
H          0.0000000000000000      0.0000000000000000      0.0000000000000000
H          0.0000000000000000      0.0000000000000000      0.0000000000000000
-------------------------------------------------------------------------------

  &derivative coupling matrix          
-------------------------------------------------------------------------------
      0.0000000000000000       0.0006151114062455       0.0251320575978426
     -0.0006151114062455       0.0000000000000000       0.0149886457380158
     -0.0251320575978426      -0.0149886457380158       0.0000000000000000
-------------------------------------------------------------------------------   

  &surface hopping information
-------------------------------------------------------

    Random number:             0.59183842
    Accumulated probability:   0.00000903
    state mult  level   probability 
    1     1     1       0.00000001
    2     1     2       0.00000000
    3     1     3       0.00000902

    
-------------------------------------------------------

  Iter:       14  Ekin =           0.0545465031390222 au T =   300.00 K dt =         20 CI:   3
  Root chosen for geometry opt   2

  Gnuplot:           0.0000000145223675           0.9998170009348541           0.0001829845442094         -94.7414125679399888         -94.5677920885203918         -94.4969442601088900         -94.5677920885203918
  **
  **
  **
  A surface hopping is not allowed
  **
  At state:   2


  &coordinates in Angstrom
-------------------------------------------------------------------------------
C         -0.0019108187242732      0.0100976403843781     -0.0449017853276726
N         -0.0226336587400624     -0.0583182976600638      1.3738179518014304
H          1.2617089568273603      0.1078256669088576     -0.6180903330066539
H          0.9944241146690719      0.2334512525298018      1.7073745160544349
H         -0.8081027914697572      0.3689042325922517      2.0238743407273501
H         -1.1099560716652961     -0.0190100232173995     -0.8242456420796820
-------------------------------------------------------------------------------

  &velocities in Bohr/au
-------------------------------------------------------------------------------
C         -0.0000911148073950      0.0000206078901055     -0.0003281704438919
N          0.0000443482377956     -0.0002057577772042      0.0007806697628743
H          0.0008347045577757     -0.0006408851746000     -0.0031032730475360
H         -0.0037884166195532      0.0018928728071054     -0.0025251895852062
H          0.0014097377908292      0.0000901321136875      0.0009611789746349
H          0.0020214884344253      0.0012865700371521     -0.0022779782858302
-------------------------------------------------------------------------------

  &gradient state               1 in Eh/Bohr
-------------------------------------------------------------------------------
C          0.0000000000000000      0.0000000000000000      0.0000000000000000
N          0.0000000000000000      0.0000000000000000      0.0000000000000000
H          0.0000000000000000      0.0000000000000000      0.0000000000000000
H          0.0000000000000000      0.0000000000000000      0.0000000000000000
H          0.0000000000000000      0.0000000000000000      0.0000000000000000
H          0.0000000000000000      0.0000000000000000      0.0000000000000000
-------------------------------------------------------------------------------

  &gradient state               2 in Eh/Bohr
-------------------------------------------------------------------------------
C         -0.0301694713666625      0.0005092658805701      0.0144168737071926
N         -0.0155942821422769     -0.0306656690176395     -0.0123141472160624
H          0.0721304024158136      0.0232680824729293     -0.0120817498942107
H          0.0541351775211947     -0.0108077590117941      0.0115188043316452
H         -0.0309810666958401      0.0356861488606741      0.0257073549219911
H         -0.0496113384891901     -0.0180735836802642     -0.0272930733997085
-------------------------------------------------------------------------------

  &gradient state               3 in Eh/Bohr
-------------------------------------------------------------------------------
C          0.0000000000000000      0.0000000000000000      0.0000000000000000
N          0.0000000000000000      0.0000000000000000      0.0000000000000000
H          0.0000000000000000      0.0000000000000000      0.0000000000000000
H          0.0000000000000000      0.0000000000000000      0.0000000000000000
H          0.0000000000000000      0.0000000000000000      0.0000000000000000
H          0.0000000000000000      0.0000000000000000      0.0000000000000000
-------------------------------------------------------------------------------

  &derivative coupling matrix          
-------------------------------------------------------------------------------
      0.0000000000000000       0.0002608221020652       0.0282953302605325
     -0.0002608221020652       0.0000000000000000       0.0217422664627432
     -0.0282953302605325      -0.0217422664627432       0.0000000000000000
-------------------------------------------------------------------------------   

  &surface hopping information
-------------------------------------------------------

    Random number:             0.20055521
    Accumulated probability:   0.00001454
    state mult  level   probability 
    1     1     1       0.00000000
    2     1     2       0.00000000
    3     1     3       0.00001454

    
-------------------------------------------------------

  Iter:       15  Ekin =           0.0602230441846530 au T =   300.00 K dt =         20 CI:   3
  Root chosen for geometry opt   2

  Gnuplot:           0.0000000426552543           0.9997098085586913           0.0002901487935345         -94.7409603314732465         -94.5734686295660225         -94.4987441850110770         -94.5734686295660225
  **
  **
  **
  A surface hopping is not allowed
  **
  At state:   2


  &coordinates in Angstrom
-------------------------------------------------------------------------------
C         -0.0027516722000259      0.0103204220133794     -0.0485657805622333
N         -0.0220795317304582     -0.0604331269156771      1.3824115102659373
H          1.2664014162555037      0.0993841023891425     -0.6512909292907373
H          0.9496555461858012      0.2548205892714898      1.6790450940873574
H         -0.7907769256097487      0.3676946175812534      2.0328062347646152
H         -1.0847926455900665     -0.0038254738683191     -0.8474832536090798
-------------------------------------------------------------------------------

  &velocities in Bohr/au
-------------------------------------------------------------------------------
C         -0.0000647646225593      0.0000198251355536     -0.0003333213164309
N          0.0000518326469365     -0.0001833508654371      0.0007801098271096
H          0.0000375059139499     -0.0009008815593842     -0.0029633449149367
H         -0.0042808869742592      0.0020462297418978     -0.0026090786805412
H          0.0017331424518738     -0.0003036113013538      0.0006775272724140
H          0.0025711687568181      0.0014860816460327     -0.0019801993198521
-------------------------------------------------------------------------------

  &gradient state               1 in Eh/Bohr
-------------------------------------------------------------------------------
C          0.0000000000000000      0.0000000000000000      0.0000000000000000
N          0.0000000000000000      0.0000000000000000      0.0000000000000000
H          0.0000000000000000      0.0000000000000000      0.0000000000000000
H          0.0000000000000000      0.0000000000000000      0.0000000000000000
H          0.0000000000000000      0.0000000000000000      0.0000000000000000
H          0.0000000000000000      0.0000000000000000      0.0000000000000000
-------------------------------------------------------------------------------

  &gradient state               2 in Eh/Bohr
-------------------------------------------------------------------------------
C         -0.0258092678450755      0.0011967025401256     -0.0043067537302317
N         -0.0027509307731393     -0.0252063448912083      0.0158864671300138
H          0.0696120393958175      0.0227750610841024     -0.0133946200707455
H          0.0325572604193400     -0.0160445543621603      0.0028690860010319
H         -0.0261674498989044      0.0342566400285815      0.0248602215222693
H         -0.0475977675733272     -0.0170977327402260     -0.0260492529776668
-------------------------------------------------------------------------------

  &gradient state               3 in Eh/Bohr
-------------------------------------------------------------------------------
C          0.0000000000000000      0.0000000000000000      0.0000000000000000
N          0.0000000000000000      0.0000000000000000      0.0000000000000000
H          0.0000000000000000      0.0000000000000000      0.0000000000000000
H          0.0000000000000000      0.0000000000000000      0.0000000000000000
H          0.0000000000000000      0.0000000000000000      0.0000000000000000
H          0.0000000000000000      0.0000000000000000      0.0000000000000000
-------------------------------------------------------------------------------

  &derivative coupling matrix          
-------------------------------------------------------------------------------
      0.0000000000000000      -0.0011116068088067       0.0313171065709950
      0.0011116068088067       0.0000000000000000       0.0301320578575444
     -0.0313171065709950      -0.0301320578575444       0.0000000000000000
-------------------------------------------------------------------------------   

  &surface hopping information
-------------------------------------------------------

    Random number:             0.13320082
    Accumulated probability:   0.00002558
    state mult  level   probability 
    1     1     1       0.00000001
    2     1     2       0.00000000
    3     1     3       0.00002558

    
-------------------------------------------------------

  Iter:       16  Ekin =           0.0651534998711156 au T =   300.00 K dt =         20 CI:   3
  Root chosen for geometry opt   2

  Gnuplot:           0.0000015755049549           0.9995477384363767           0.0004506860535838         -94.7398933609725589         -94.5783990852524852         -94.4995432914854945         -94.5783990852524852
  **
  **
  **
  A surface hopping is not allowed
  **
  At state:   2


  &coordinates in Angstrom
-------------------------------------------------------------------------------
C         -0.0033268171709267      0.0105310924765729     -0.0521894440470644
N         -0.0215004019611658     -0.0623270377776136      1.3908740892381060
H          1.2625289772921549      0.0881290047760978     -0.6828802079511865
H          0.9008278106020322      0.2781895374378797      1.6503302345802613
H         -0.7702097732956107      0.3622661466417069      2.0386876373604723
H         -1.0537406438303998      0.0134813157146670     -0.8675402533994053
-------------------------------------------------------------------------------

  &velocities in Bohr/au
-------------------------------------------------------------------------------
C         -0.0000472691494954      0.0000190265804307     -0.0003138755371736
N          0.0000470502576396     -0.0001684586759971      0.0007527883029341
H         -0.0007064916172681     -0.0011314368149960     -0.0028270076152921
H         -0.0044749810235896      0.0022559618114114     -0.0025778435539706
H          0.0019959538295882     -0.0006462852366330      0.0003960202150151
H          0.0031053533631452      0.0016534415527599     -0.0017161311552258
-------------------------------------------------------------------------------

  &gradient state               1 in Eh/Bohr
-------------------------------------------------------------------------------
C          0.0000000000000000      0.0000000000000000      0.0000000000000000
N          0.0000000000000000      0.0000000000000000      0.0000000000000000
H          0.0000000000000000      0.0000000000000000      0.0000000000000000
H          0.0000000000000000      0.0000000000000000      0.0000000000000000
H          0.0000000000000000      0.0000000000000000      0.0000000000000000
H          0.0000000000000000      0.0000000000000000      0.0000000000000000
-------------------------------------------------------------------------------

  &gradient state               2 in Eh/Bohr
-------------------------------------------------------------------------------
C         -0.0114009904601754      0.0005538337550118     -0.0378590995107091
N          0.0147356494145459     -0.0121927279562248      0.0543257472264838
H          0.0624809204414278      0.0179221980947415     -0.0115781005786837
H          0.0007904058741635     -0.0206588928114719     -0.0090909517561615
H         -0.0200404591521814      0.0265001477316344      0.0252919472348694
H         -0.0465701903894646     -0.0122285759043155     -0.0213447917084328
-------------------------------------------------------------------------------

  &gradient state               3 in Eh/Bohr
-------------------------------------------------------------------------------
C          0.0000000000000000      0.0000000000000000      0.0000000000000000
N          0.0000000000000000      0.0000000000000000      0.0000000000000000
H          0.0000000000000000      0.0000000000000000      0.0000000000000000
H          0.0000000000000000      0.0000000000000000      0.0000000000000000
H          0.0000000000000000      0.0000000000000000      0.0000000000000000
H          0.0000000000000000      0.0000000000000000      0.0000000000000000
-------------------------------------------------------------------------------

  &derivative coupling matrix          
-------------------------------------------------------------------------------
      0.0000000000000000      -0.0052357684870987       0.0339201256831445
      0.0052357684870987       0.0000000000000000       0.0387352039775103
     -0.0339201256831445      -0.0387352039775103       0.0000000000000000
-------------------------------------------------------------------------------   

  &surface hopping information
-------------------------------------------------------

    Random number:             0.07025097
    Accumulated probability:   0.00004115
    state mult  level   probability 
    1     1     1       0.00000038
    2     1     2       0.00000000
    3     1     3       0.00004077

    
-------------------------------------------------------

  Iter:       17  Ekin =           0.0665185987539445 au T =   300.00 K dt =         20 CI:   3
  Root chosen for geometry opt   2

  Gnuplot:           0.0000112085373681           0.9992978341178969           0.0006909573623259         -94.7366627753343948         -94.5797641841353141         -94.4983591388767650         -94.5797641841353141
  **
  **
  **
  A surface hopping is not allowed
  **
  At state:   2


  &coordinates in Angstrom
-------------------------------------------------------------------------------
C         -0.0037849867911896      0.0107363474825049     -0.0554271727352119
[...]
H          0.0031303033307917     -0.0144767912473154      0.0058570928169588
-------------------------------------------------------------------------------

  &gradient state               3 in Eh/Bohr
-------------------------------------------------------------------------------
C          0.0000000000000000      0.0000000000000000      0.0000000000000000
N          0.0000000000000000      0.0000000000000000      0.0000000000000000
H          0.0000000000000000      0.0000000000000000      0.0000000000000000
H          0.0000000000000000      0.0000000000000000      0.0000000000000000
H          0.0000000000000000      0.0000000000000000      0.0000000000000000
H          0.0000000000000000      0.0000000000000000      0.0000000000000000
-------------------------------------------------------------------------------

  &derivative coupling matrix          
-------------------------------------------------------------------------------
      0.0000000000000000       0.0247441083621152       0.0070745363086999
     -0.0247441083621152       0.0000000000000000      -0.1399989338608768
     -0.0070745363086999       0.1399989338608768       0.0000000000000000
-------------------------------------------------------------------------------   

  &surface hopping information
-------------------------------------------------------

    Random number:             0.29456064
    Accumulated probability:   0.00125848
    state mult  level   probability 
    1     1     1       0.00000706
    2     1     2       0.00000000
    3     1     3       0.00125142

    
-------------------------------------------------------

  Iter:      197  Ekin =           0.0726772524076722 au T =   300.00 K dt =         20 CI:   3
  Root chosen for geometry opt   2

  Gnuplot:           0.0000360372932773           0.9624239727854729           0.0375399896615189         -94.7628740736834487         -94.5859228377890418         -94.5567058032898302         -94.5859228377890418
  **
  **
  **
  A surface hopping is not allowed
  **
  At state:   2


  &coordinates in Angstrom
-------------------------------------------------------------------------------
C          0.0261802308660848     -0.0609852633777511     -0.0924766514287836
N         -0.0190047633228671     -0.0090969271376905      1.4019221632724144
H          0.9753385217815917      0.0563266142805288     -0.6958367724170904
H          0.7806295423037156      0.3152352847297957      1.8765744914265670
H         -0.9490627871112540      0.0948788281638377      2.0864462721906691
H         -0.8063169520954195      0.4357758435117814     -0.6555542297729712
-------------------------------------------------------------------------------

  &velocities in Bohr/au
-------------------------------------------------------------------------------
C          0.0002263507889846     -0.0001037751794693     -0.0000346816189873
N         -0.0003639486088041     -0.0000629094205719      0.0005714736159306
H          0.0011314761836052      0.0001733195641497     -0.0060169317557332
H         -0.0004359407646643      0.0011772594393518     -0.0031638262377023
H         -0.0001037936767426     -0.0008027689968144      0.0035847185888245
H          0.0018000206433681      0.0016044063240117     -0.0018707426351614
-------------------------------------------------------------------------------

  &gradient state               1 in Eh/Bohr
-------------------------------------------------------------------------------
C          0.0000000000000000      0.0000000000000000      0.0000000000000000
N          0.0000000000000000      0.0000000000000000      0.0000000000000000
H          0.0000000000000000      0.0000000000000000      0.0000000000000000
H          0.0000000000000000      0.0000000000000000      0.0000000000000000
H          0.0000000000000000      0.0000000000000000      0.0000000000000000
H          0.0000000000000000      0.0000000000000000      0.0000000000000000
-------------------------------------------------------------------------------

  &gradient state               2 in Eh/Bohr
-------------------------------------------------------------------------------
C          0.0061824414145285      0.0017817455649025     -0.0713895677509946
N          0.0768354155221129      0.0121753940650853      0.0245702238447594
H         -0.0003676737643570      0.0070406511437477      0.0017093192345663
H         -0.0314247951650599     -0.0230627197304643     -0.0131331202375948
H         -0.0536465380047240      0.0145197101968009      0.0526593730589493
H          0.0025848409020042     -0.0125443750610381      0.0054944431243125
-------------------------------------------------------------------------------

  &gradient state               3 in Eh/Bohr
-------------------------------------------------------------------------------
C          0.0000000000000000      0.0000000000000000      0.0000000000000000
N          0.0000000000000000      0.0000000000000000      0.0000000000000000
H          0.0000000000000000      0.0000000000000000      0.0000000000000000
H          0.0000000000000000      0.0000000000000000      0.0000000000000000
H          0.0000000000000000      0.0000000000000000      0.0000000000000000
H          0.0000000000000000      0.0000000000000000      0.0000000000000000
-------------------------------------------------------------------------------

  &derivative coupling matrix          
-------------------------------------------------------------------------------
      0.0000000000000000       0.0266682597784887       0.0081531154397682
     -0.0266682597784887       0.0000000000000000      -0.1277088522379675
     -0.0081531154397682       0.1277088522379675       0.0000000000000000
-------------------------------------------------------------------------------   

  &surface hopping information
-------------------------------------------------------

    Random number:             0.85941809
    Accumulated probability:   0.00284134
    state mult  level   probability 
    1     1     1       0.00000751
    2     1     2       0.00000000
    3     1     3       0.00283383

    
-------------------------------------------------------

  Iter:      198  Ekin =           0.0686767050797528 au T =   300.00 K dt =         20 CI:   3
  Root chosen for geometry opt   2

  Gnuplot:           0.0000419942970435           0.9403266273438931           0.0596313768540376         -94.7504502747449209         -94.5819222904611223         -94.5498129008364998         -94.5819222904611223
  **
  **
  **
  A surface hopping is not allowed
  **
  At state:   2


  &coordinates in Angstrom
-------------------------------------------------------------------------------
C          0.0286241562798998     -0.0621295653979300     -0.0924874087852049
N         -0.0233258469755710     -0.0098389413844586      1.4080642135108417
H          0.9877373344184737      0.0577892439404179     -0.7617556969597366
H          0.7777945022440784      0.3295311268784256      1.8427762412338786
H         -0.9468976418448012      0.0852047818731205      2.1224165424109813
H         -0.7867871825336508      0.4540967471704462     -0.6763546180149905
-------------------------------------------------------------------------------

  &velocities in Bohr/au
-------------------------------------------------------------------------------
C          0.0002228510336378     -0.0001043403310711      0.0000274246126954
N         -0.0004279292023180     -0.0000742816213796      0.0005479299936366
H          0.0010580030447616      0.0000930726361706     -0.0059493623016875
H         -0.0000258501530897      0.0014533153461401     -0.0029709740434652
H          0.0005078709412761     -0.0009548859140895      0.0029602974116472
H          0.0017809165671140      0.0017262768107404     -0.0019184381740324
-------------------------------------------------------------------------------

  &gradient state               1 in Eh/Bohr
-------------------------------------------------------------------------------
C          0.0000000000000000      0.0000000000000000      0.0000000000000000
N          0.0000000000000000      0.0000000000000000      0.0000000000000000
H          0.0000000000000000      0.0000000000000000      0.0000000000000000
H          0.0000000000000000      0.0000000000000000      0.0000000000000000
H          0.0000000000000000      0.0000000000000000      0.0000000000000000
H          0.0000000000000000      0.0000000000000000      0.0000000000000000
-------------------------------------------------------------------------------

  &gradient state               2 in Eh/Bohr
-------------------------------------------------------------------------------
C          0.0009591909388837     -0.0004568356372969     -0.0602161283717866
N          0.0818427002148729      0.0160262338475032      0.0328139741965114
H          0.0133219337053960      0.0072169881158975     -0.0131118104899608
H         -0.0414830348732518     -0.0261667759959783     -0.0208492948047581
H         -0.0551541592923153      0.0126233606938960      0.0580532863219769
H          0.0006288664373146     -0.0093003387847559      0.0031823482499571
-------------------------------------------------------------------------------

  &gradient state               3 in Eh/Bohr
-------------------------------------------------------------------------------
C          0.0000000000000000      0.0000000000000000      0.0000000000000000
N          0.0000000000000000      0.0000000000000000      0.0000000000000000
H          0.0000000000000000      0.0000000000000000      0.0000000000000000
H          0.0000000000000000      0.0000000000000000      0.0000000000000000
H          0.0000000000000000      0.0000000000000000      0.0000000000000000
H          0.0000000000000000      0.0000000000000000      0.0000000000000000
-------------------------------------------------------------------------------

  &derivative coupling matrix          
-------------------------------------------------------------------------------
      0.0000000000000000       0.0276453522199872       0.0085221141710568
     -0.0276453522199872       0.0000000000000000      -0.0939716837111644
     -0.0085221141710568       0.0939716837111644       0.0000000000000000
-------------------------------------------------------------------------------   

  &surface hopping information
-------------------------------------------------------

    Random number:             0.64126539
    Accumulated probability:   0.00219483
    state mult  level   probability 
    1     1     1       0.00000749
    2     1     2       0.00000000
    3     1     3       0.00218734

    
-------------------------------------------------------

  Iter:      199  Ekin =           0.0643497604555279 au T =   300.00 K dt =         20 CI:   3
  Root chosen for geometry opt   2

  Gnuplot:           0.0000528110280302           0.9470417350530624           0.0529054541653000         -94.7378359990773902         -94.5775953458368974         -94.5424536290631607         -94.5775953458368974
  **
  **
  **
  A surface hopping is not allowed
  **
  At state:   2


  &coordinates in Angstrom
-------------------------------------------------------------------------------
C          0.0310567693500306     -0.0632684910190594     -0.0918765322503652
N         -0.0283689255142789     -0.0107223949643127      1.4139122431785287
H          0.9984902769235416      0.0583632765507424     -0.8260237127490555
H          0.7800638762428489      0.3470374626199872      1.8115621420501113
H         -0.9379492995515042      0.0739835339764018      2.1512249901358955
H         -0.7673460393988922      0.4735511015579367     -0.6975344594897724
-------------------------------------------------------------------------------

  &velocities in Bohr/au
-------------------------------------------------------------------------------
C          0.0002223894781005     -0.0001023817190105      0.0000767819566654
N         -0.0004921864044143     -0.0000876061059184      0.0005202685988773
H          0.0008549449746866      0.0000070539529049     -0.0057234818974393
H          0.0004538618204216      0.0017518213146021     -0.0027181269333154
H          0.0011219625052026     -0.0010876370475450      0.0022893274179147
H          0.0017878626619375      0.0018088123865900     -0.0019286376079581
-------------------------------------------------------------------------------

  &gradient state               1 in Eh/Bohr
-------------------------------------------------------------------------------
C          0.0000000000000000      0.0000000000000000      0.0000000000000000
N          0.0000000000000000      0.0000000000000000      0.0000000000000000
H          0.0000000000000000      0.0000000000000000      0.0000000000000000
H          0.0000000000000000      0.0000000000000000      0.0000000000000000
H          0.0000000000000000      0.0000000000000000      0.0000000000000000
H          0.0000000000000000      0.0000000000000000      0.0000000000000000
-------------------------------------------------------------------------------

  &gradient state               2 in Eh/Bohr
-------------------------------------------------------------------------------
C         -0.0001742187356946     -0.0036037118766519     -0.0444140594463054
N          0.0774060299637931      0.0169812418670232      0.0349989647277504
H          0.0227177811783608      0.0080758596870550     -0.0266312316090791
H         -0.0438385387285338     -0.0270324246514748     -0.0239068878733819
H         -0.0541075344875734      0.0110577637730460      0.0610726506994270
H         -0.0019939228877806     -0.0055053833676810     -0.0012286327302253
-------------------------------------------------------------------------------

  &gradient state               3 in Eh/Bohr
-------------------------------------------------------------------------------
C          0.0000000000000000      0.0000000000000000      0.0000000000000000
N          0.0000000000000000      0.0000000000000000      0.0000000000000000
H          0.0000000000000000      0.0000000000000000      0.0000000000000000
H          0.0000000000000000      0.0000000000000000      0.0000000000000000
H          0.0000000000000000      0.0000000000000000      0.0000000000000000
H          0.0000000000000000      0.0000000000000000      0.0000000000000000
-------------------------------------------------------------------------------

  &derivative coupling matrix          
-------------------------------------------------------------------------------
      0.0000000000000000       0.0283013982119151       0.0078566241658960
     -0.0283013982119151       0.0000000000000000      -0.0497057450939431
     -0.0078566241658960       0.0497057450939431       0.0000000000000000
-------------------------------------------------------------------------------   

  &surface hopping information
-------------------------------------------------------

    Random number:             0.45740870
    Accumulated probability:   0.00062958
    state mult  level   probability 
    1     1     1       0.00000796
    2     1     2       0.00000000
    3     1     3       0.00062162

    
-------------------------------------------------------

  Iter:      200  Ekin =           0.0605022607612682 au T =   300.00 K dt =         20 CI:   3
  Root chosen for geometry opt   2

  Gnuplot:           0.0000693318408118           0.9677153825759888           0.0322152845111532         -94.7260979357826329         -94.5737478461426377         -94.5356869429705142         -94.5737478461426377
  **
  **
  **
  A surface hopping is not allowed
  **
  At state:   2


  &coordinates in Angstrom
-------------------------------------------------------------------------------
C          0.0334901858211301     -0.0643697454345132     -0.0908073685577680
N         -0.0340952125234758     -0.0117558211893506      1.4194480361320148
H          1.0064440985085956      0.0579435891167762     -0.8869892836811831
H          0.7877253004305367      0.3678621411899845      1.7833018179504656
H         -0.9223483567747521      0.0614065606231991      2.1725085473937300
H         -0.7476675595957399      0.4936747640032049     -0.7185544903057594
-------------------------------------------------------------------------------

  &velocities in Bohr/au
-------------------------------------------------------------------------------
C          0.0002218631015635     -0.0000974366601513      0.0001105957573526
N         -0.0005488476170262     -0.0001002049127714      0.0004925054343107
H          0.0005666075291243     -0.0000926121128889     -0.0053580968068929
H          0.0009094178220874      0.0020439329562646     -0.0024562678350958
H          0.0017114590370974     -0.0012059970887614      0.0015989728054044
H          0.0018246650909079      0.0018510951995903     -0.0018813382024250
-------------------------------------------------------------------------------

  &gradient state               1 in Eh/Bohr
-------------------------------------------------------------------------------
C          0.0000000000000000      0.0000000000000000      0.0000000000000000
N          0.0000000000000000      0.0000000000000000      0.0000000000000000
H          0.0000000000000000      0.0000000000000000      0.0000000000000000
H          0.0000000000000000      0.0000000000000000      0.0000000000000000
H          0.0000000000000000      0.0000000000000000      0.0000000000000000
H          0.0000000000000000      0.0000000000000000      0.0000000000000000
-------------------------------------------------------------------------------

  &gradient state               2 in Eh/Bohr
-------------------------------------------------------------------------------
C          0.0012483979362700     -0.0068544186874555     -0.0272409432255709
N          0.0626968221380853      0.0141663882417709      0.0334854849738098
H          0.0285372897313114      0.0096453199116013     -0.0382480086244681
H         -0.0371693762830123     -0.0249341024130014     -0.0226112960790099
H         -0.0507262458785132      0.0100042857390419      0.0616415255520031
H         -0.0045774876937510     -0.0020408004290435     -0.0071516411775754
-------------------------------------------------------------------------------

  &gradient state               3 in Eh/Bohr
-------------------------------------------------------------------------------
C          0.0000000000000000      0.0000000000000000      0.0000000000000000
N          0.0000000000000000      0.0000000000000000      0.0000000000000000
H          0.0000000000000000      0.0000000000000000      0.0000000000000000
H          0.0000000000000000      0.0000000000000000      0.0000000000000000
H          0.0000000000000000      0.0000000000000000      0.0000000000000000
H          0.0000000000000000      0.0000000000000000      0.0000000000000000
-------------------------------------------------------------------------------

  &derivative coupling matrix          
-------------------------------------------------------------------------------
      0.0000000000000000       0.0293487947726212       0.0062501258534748
     -0.0293487947726212       0.0000000000000000      -0.0057524329336440
     -0.0062501258534748       0.0057524329336440       0.0000000000000000
-------------------------------------------------------------------------------   

  &surface hopping information
-------------------------------------------------------

    Random number:             0.69285905
    Accumulated probability:   0.00000949
    state mult  level   probability 
    1     1     1       0.00000949
    2     1     2       0.00000000
    3     1     3       0.00000000

    
-------------------------------------------------------


Nonadiabatic Molecular Dynamics End:  2025-11-18 13:12:42 Total:     0 days     0 hours    10 minutes    29 seconds
