[Molden Format]
[Atoms] AU
C  1 6   0.05014533  -0.02521803  -0.24621306
N  2 7   0.03841773  -0.12642194   2.66041698
H  3 1   1.84144215   1.96437575  -1.25577344
H  4 1   0.68732016  -0.38038703   4.24521522
H  5 1  -1.70519269   1.40404618   3.53502431
H  6 1  -1.86274492  -0.65727052  -0.88547066
[GTO]
1
s 6
    3.047524902344e+03     1.834737136960e-03
    4.573695068359e+02     1.403732318431e-02
    1.039486846924e+02     6.884261965752e-02
    2.921015548706e+01     2.321844398975e-01
    9.286663055420e+00     4.679413437843e-01
    3.163927078247e+00     3.623119890690e-01
s 3
    7.868272304535e+00    -1.193324178457e-01
    1.881288528442e+00    -1.608541458845e-01
    5.442492365837e-01     1.143456459045e+00
p 3
    7.868272304535e+00     6.899906694889e-02
    1.881288528442e+00     3.164239525795e-01
    5.442492365837e-01     7.443082928658e-01
s 1
    1.687144786119e-01     1.000000000000e+00
p 1
    1.687144786119e-01     1.000000000000e+00

2
s 6
    4.173511230469e+03     1.834772177972e-03
    6.274578857422e+02     1.399462670088e-02
    1.429020996094e+02     6.858655065298e-02
    4.023432922363e+01     2.322408705950e-01
    1.282021331787e+01     4.690699577332e-01
    4.390437126160e+00     3.604551851749e-01
s 3
    1.162636184692e+01    -1.149611845613e-01
    2.716279745102e+00    -1.691174805164e-01
    7.722184062004e-01     1.145851969719e+00
p 3
    1.162636184692e+01     6.757974624634e-02
    2.716279745102e+00     3.239072859287e-01
    7.722184062004e-01     7.408951520920e-01
s 1
    2.120314985514e-01     1.000000000000e+00
p 1
    2.120314985514e-01     1.000000000000e+00

3
s 3
    1.873113632202e+01     3.349460288882e-02
    2.825394392014e+00     2.347269505262e-01
    6.401216983795e-01     8.137573003769e-01
s 1
    1.612777560949e-01     1.000000000000e+00

4
s 3
    1.873113632202e+01     3.349460288882e-02
    2.825394392014e+00     2.347269505262e-01
    6.401216983795e-01     8.137573003769e-01
s 1
    1.612777560949e-01     1.000000000000e+00

5
s 3
    1.873113632202e+01     3.349460288882e-02
    2.825394392014e+00     2.347269505262e-01
    6.401216983795e-01     8.137573003769e-01
s 1
    1.612777560949e-01     1.000000000000e+00

6
s 3
    1.873113632202e+01     3.349460288882e-02
    2.825394392014e+00     2.347269505262e-01
    6.401216983795e-01     8.137573003769e-01
s 1
    1.612777560949e-01     1.000000000000e+00

[MO]
Ene=    -14.78271362
Spin= Alpha
Occup=      1.00000000
1     -0.00003001
2     -0.00089546
3     -0.00004415
4     -0.00002078
5     -0.00003369
6      0.00521476
7     -0.00018633
8     -0.00003103
9      0.00336236
10      0.99533381
11      0.02975044
12     -0.00001038
13      0.00047138
14      0.00056383
15     -0.01727205
16      0.00046242
17     -0.00085228
18      0.00161094
19     -0.00027674
20      0.00016292
21     -0.00119636
22      0.00346681
23      0.00054506
24      0.00156747
25     -0.00038787
26      0.00011711
Ene=    -10.58540752
Spin= Alpha
Occup=      1.00000000
1      0.99541647
2      0.03113544
3     -0.00070168
4      0.00040972
5      0.00130340
6     -0.01721757
7      0.00139218
8     -0.00015587
9     -0.00154765
10      0.00001419
11     -0.00051678
12     -0.00007430
13     -0.00000056
14      0.00045926
15      0.00359145
16      0.00043826
17     -0.00015407
18     -0.00089534
19     -0.00003989
20      0.00203418
21     -0.00041928
22     -0.00036333
23     -0.00029701
24      0.00086917
25     -0.00092670
26      0.00455335
Ene=     -1.21311269
Spin= Alpha
Occup=      1.00000000
1     -0.05890713
2      0.12456254
3     -0.01118002
4     -0.00048718
5      0.08734328
6      0.03617923
7     -0.00047616
8      0.00051281
9     -0.01657660
10     -0.20473436
11      0.44526794
12      0.02078847
13      0.01648388
14      0.05958709
15      0.45295111
16     -0.01567085
17      0.02776292
18     -0.00844149
19      0.01063819
20     -0.00106099
21      0.18768780
22      0.00361735
23      0.07418103
24     -0.00111102
25      0.02717580
26     -0.00110190
Ene=     -0.96492160
Spin= Alpha
Occup=      1.00000000
1     -0.15619990
2      0.32585990
3     -0.07427514
4      0.00166127
5      0.09337676
6      0.25540284
7     -0.02121626
8      0.01955693
9      0.00457286
10      0.01928429
11     -0.04674328
12     -0.06777479
13      0.02302783
14     -0.37589082
15     -0.04999103
16     -0.03127327
17      0.00514671
18     -0.18167813
19      0.04700234
20      0.01558444
21     -0.19408105
22     -0.01055423
23     -0.02764407
24     -0.01277323
25      0.12690319
26      0.02945942
Ene=     -0.75346490
Spin= Alpha
Occup=      1.00000000
1      0.09325099
2     -0.18698100
3      0.11541148
4      0.03355730
5      0.22955626
6     -0.30346975
7      0.05055644
8     -0.00511454
9      0.02989213
10     -0.04004810
11      0.07571228
12     -0.23136818
13      0.19125371
14     -0.26533835
15      0.21958408
16     -0.13994826
17      0.12370860
18     -0.16256216
19     -0.06254936
20     -0.04577103
21     -0.19037822
22     -0.06258406
23      0.13467451
24      0.08670307
25     -0.19996637
26     -0.09676737
Ene=     -0.73423150
Spin= Alpha
Occup=      1.00000000
1      0.01549075
2     -0.02263095
3      0.21130080
4      0.01339227
5      0.18321113
6     -0.09731588
7      0.08254467
8      0.01894497
9      0.02083040
10     -0.02905861
11      0.08081412
12      0.33810573
13     -0.21285368
14     -0.20485460
15      0.08194295
16      0.21088935
17     -0.14043046
18     -0.16677502
19      0.01848538
20      0.01174886
21      0.03667729
22      0.03229440
23     -0.21327742
24     -0.14152197
25     -0.15908234
26     -0.08368912
Ene=     -0.66605771
Spin= Alpha
Occup=      1.00000000
1      0.04744774
2     -0.07656400
3     -0.26990691
4     -0.26303554
5      0.10854519
6     -0.20644558
7     -0.15659747
8     -0.15728301
9      0.02775139
10     -0.02418186
11      0.06086178
12     -0.03456833
13     -0.21770934
14     -0.09197912
15      0.08610109
16     -0.01805154
17     -0.13334337
18     -0.08825228
19     -0.24026753
20     -0.19772369
21     -0.00072694
22      0.01343219
23     -0.06631950
24     -0.05315972
25      0.12304903
26      0.06494129
Ene=     -0.52513074
Spin= Alpha
Occup=      1.00000000
1     -0.00976205
2      0.01287275
3      0.16376538
4     -0.00540984
5     -0.05251938
6      0.06530732
7      0.12101997
8      0.02514678
9     -0.01861473
10     -0.00917964
11      0.02389886
12     -0.41266885
13     -0.48950729
14      0.04054961
15      0.03150524
16     -0.28270381
17     -0.33689592
18      0.04339670
19      0.12135385
20      0.12220094
21     -0.02846377
22     -0.02100594
23      0.02016565
24      0.02191577
25     -0.09301609
26     -0.05401407
Ene=     -0.39811061
Spin= Alpha
Occup=      1.00000000
1     -0.05009785
2      0.12516619
3      0.34432717
4     -0.50273708
5     -0.11128110
6      0.18041358
7      0.23819999
8     -0.36798233
9     -0.06782096
10      0.01845078
11     -0.05341553
12      0.03307070
13      0.13233599
14      0.02634415
15     -0.05835123
16      0.03302168
17      0.10312154
18      0.04558580
19     -0.06612172
20     -0.09072897
21     -0.04039560
22     -0.04435488
23      0.11976706
24      0.16926215
25     -0.02934041
26     -0.02809638
Ene=     -0.24035434
Spin= Alpha
Occup=      0.00000000
1      0.00835779
2     -0.03337453
3     -0.03728069
4      0.05427647
5      0.10457944
6     -0.05359719
7     -0.03370601
8      0.10097687
9      0.16043403
10      0.07539941
11     -0.16723209
12      0.29378891
13     -0.27226892
14     -0.10984547
15     -0.71298825
16      0.35724141
17     -0.34045935
18     -0.14117103
19      0.00645862
20      0.04117431
21      0.00067473
22      0.19609556
23      0.28380695
24      1.02599359
25      0.01954123
26      0.12235196
Ene=     -0.21810396
Spin= Alpha
Occup=      0.00000000
1      0.12737010
2     -0.25451869
3     -0.13613792
4     -0.27064424
5     -0.00436866
6     -0.94393527
7     -0.11662437
8     -0.32966504
9      0.02777213
10     -0.04200194
11      0.08325161
12      0.07081840
13      0.05520917
14     -0.08966490
15      0.40034968
16      0.10822308
17      0.07236456
18     -0.10833373
19      0.27869958
20      0.92368990
21     -0.08586582
22     -0.20975903
23      0.00345896
24     -0.00212140
25      0.12167455
26      0.37901358
Ene=     -0.15344653
Spin= Alpha
Occup=      0.00000000
1      0.04802132
2     -0.10190180
3      0.04417207
4      0.13169119
5     -0.46865335
6     -0.42989778
7      0.07413925
8      0.21779312
9     -0.71699753
10     -0.10083159
11      0.20196043
12      0.16722194
13     -0.11781025
14     -0.11791571
15      1.22455884
16      0.28604748
17     -0.19233602
18     -0.19564787
19     -0.07549025
20     -0.32817623
21     -0.20651290
22     -0.91942525
23      0.08857067
24      0.27978990
25      0.00550766
26      0.10893490
Ene=     -0.05111654
Spin= Alpha
Occup=      0.00000000
1     -0.04121541
2      0.09432257
3     -0.38443863
4     -0.17390357
5     -0.17093416
6      0.70223265
7     -0.96217372
8     -0.39250017
9     -0.53681256
10     -0.00575177
11      0.02389454
12      0.04401910
13     -0.00347429
14     -0.13989331
15     -0.01026834
16      0.12332420
17      0.07062349
18     -0.33312116
19      0.04093398
20      0.39798663
21      0.02189092
22      0.37142516
23      0.03818336
24      0.10798534
25     -0.14413770
26     -1.84703063
Ene=     -0.02843856
Spin= Alpha
Occup=      0.00000000
1      0.06929871
2     -0.09804495
3      0.09801576
4      0.07076522
5     -0.24199130
6     -1.14586625
7      0.34437457
8      0.12657489
9     -0.80917773
10     -0.00489547
11     -0.00759462
12     -0.14204497
13      0.08035551
14     -0.41140243
15     -0.24949293
16     -0.32051337
17      0.13258715
18     -1.19803768
19     -0.02896065
20     -0.16028130
21      0.00473539
22      1.88770497
23     -0.05723118
24     -0.15004268
25      0.00682998
26      0.57062291
Ene=      0.29516765
Spin= Alpha
Occup=      0.00000000
1      0.00377492
2      0.22694238
3      0.25031240
4     -0.14880434
5      0.83287324
6     -0.83479740
7     -0.39969377
8      0.09570811
9     -1.63763135
10      0.00545363
11      0.03525688
12      0.14241693
13     -0.05218312
14      0.07669062
15      0.62171587
16     -0.15610494
17      0.08300415
18     -0.82895905
19     -0.02919229
20      0.02016290
21      0.36043017
22      0.10534157
23     -0.01129205
24      0.16973434
25     -0.22774142
26     -0.04729537
Ene=      0.33831176
Spin= Alpha
Occup=      0.00000000
1     -0.01073544
2     -0.04456692
3      0.53358671
4     -0.77159229
5     -0.33868844
6      0.32701539
7     -0.70910604
8      0.84811521
9      0.47158869
10     -0.00655639
11      0.11758097
12     -0.06165555
13     -0.02704896
14     -0.04656410
15     -0.44312267
16      0.16121680
17     -0.11570071
18      0.07400367
19      0.00587144
20     -0.04551987
21      0.08692932
22     -0.03446611
23     -0.27638493
24      0.24531821
25     -0.04529149
26     -0.15141818
Ene=      0.40312284
Spin= Alpha
Occup=      0.00000000
1     -0.01353316
2     -0.09342647
3      0.24387729
4      0.25989738
5     -0.18653990
6      0.46329141
7     -0.50159394
8     -0.31414097
9      0.32635698
10      0.00487870
11      0.01794434
12      0.51068334
13      0.66294915
14     -0.05975527
15     -0.32866624
16     -0.49931943
17     -0.70146043
18      0.17019417
19      0.14542040
20      0.14086034
21      0.06261320
22     -0.05731866
23     -0.17620004
24      0.19292343
25     -0.26673144
26     -0.23111489
Ene=      0.45045322
Spin= Alpha
Occup=      0.00000000
1      0.00855129
2      0.44030143
3     -0.06596158
4     -0.28029053
5      0.06340600
6     -0.37217382
7      0.73244951
8      0.63918944
9      0.06805461
10      0.00086683
11      0.01418917
12      0.38638892
13     -0.04701822
14     -0.33799656
15      0.22871882
16     -0.67618147
17      0.00445915
18      0.43111293
19      0.58186324
20     -0.87324151
21      0.00651109
22      0.09496529
23      0.60795579
24     -0.94281115
25      0.39871883
26      0.35173842
Ene=      0.48144417
Spin= Alpha
Occup=      0.00000000
1     -0.01279537
2      0.34169210
3      0.61440741
4      0.42291740
5     -0.25131178
6     -0.27119318
7     -1.25312729
8     -1.01446715
9      0.42625518
10      0.00657064
11     -0.08791557
12      0.17550683
13     -0.40274654
14     -0.19209931
15      0.08156804
16     -0.13663258
17      0.74968115
18      0.21346989
19     -0.39162004
20      1.24363035
21      0.11421083
22      0.07455387
23      0.39092695
24     -0.77893864
25      0.00823159
26     -0.60959183
Ene=      0.55646722
Spin= Alpha
Occup=      0.00000000
1      0.01075470
2      0.13405361
3     -0.04617969
4      0.25464965
5     -0.09181187
6      0.16231343
7      0.28983209
8     -0.49816194
9      0.32212102
10     -0.01621576
11      0.59185673
12      0.05370185
13     -0.30345502
14     -0.36672666
15     -1.13384678
16     -0.26724856
17      0.54372554
18      0.27691661
19      0.41564370
20     -0.29204081
21      0.50798087
22     -0.21320310
23     -0.73976311
24      0.77735674
25      0.15382504
26     -0.00231475
Ene=      0.58613448
Spin= Alpha
Occup=      0.00000000
1      0.01235078
2      0.77655361
3      0.44718207
4      0.26330372
5      0.20068092
6     -0.96487531
7     -0.76645539
8     -0.28009956
9     -0.39798352
10     -0.01860097
11      0.29632477
12     -0.46614740
13      0.37350171
14      0.03950297
15      0.01127450
16      0.92670356
17     -0.61729197
18     -0.21608410
19      0.15245245
20      0.33325749
21     -0.09640843
22     -0.20193026
23      0.00480178
24      0.73252489
25      0.68376206
26     -0.79449701
Ene=      0.64907970
Spin= Alpha
Occup=      0.00000000
1     -0.00260850
2     -1.41546558
3      0.41590622
4      0.18980865
5      0.09625442
6      3.00929556
7     -1.34366706
8     -0.48852508
9      0.14131441
10      0.02043244
11     -0.23286475
12     -0.24778772
13     -0.07459844
14     -0.05512049
15     -0.08335607
16      0.60928037
17      0.15773115
18      0.62731692
19      0.66537551
20     -0.64587257
21      0.04629139
22     -0.47379843
23      0.24798030
24     -0.25201580
25     -0.00346603
26     -1.50720980
Ene=      0.70543186
Spin= Alpha
Occup=      0.00000000
1      0.01751649
2     -0.72889324
3      0.00180392
4     -0.09666801
5      0.22935828
6      1.91587319
7      0.11276622
8      0.26910339
9      0.40762855
10      0.01968009
11     -0.22926792
12     -0.04276711
13      0.20384258
14     -0.70049451
15      0.28664035
16      0.06310477
17     -0.41132883
18      1.79001758
19     -0.66217018
20      0.27962255
21      0.31069497
22     -1.47219231
23     -0.09372071
24      0.03497882
25      0.48520007
26     -0.64580876
Ene=      0.73107496
Spin= Alpha
Occup=      0.00000000
1     -0.02019918
2      0.57409627
3     -0.23544604
4     -0.02354108
5     -0.18091175
6     -0.68982715
7      0.04591533
8      0.03958282
9      0.39483552
10      0.02883263
11     -0.21679768
12     -0.48537067
13      0.19736207
14     -0.48690555
15      0.40243702
16      0.80525923
17     -0.33468207
18      0.65983686
19      0.16560201
20      0.02806726
21      0.66432508
22     -1.25395041
23      0.31015718
24      0.11855395
25     -0.75606995
26      1.05756731
Ene=      0.86172679
Spin= Alpha
Occup=      0.00000000
1     -0.02088736
2      0.43066703
3      0.08511183
4      0.03001679
5      0.28781204
6      0.55385679
7     -0.50631664
8     -0.26085401
9      0.22745462
10     -0.01694808
11     -0.64632859
12      0.03375383
13     -0.15036338
14     -0.34831629
15      1.70374150
16      0.44085486
17      0.18250900
18      2.31289780
19      0.18654402
20      0.04979029
21     -1.03263154
22     -1.31431397
23     -0.53808809
24     -0.04634144
25     -0.32188718
26     -0.00311509
Ene=      1.06365938
Spin= Alpha
Occup=      0.00000000
1      0.05367425
2      0.48368901
3      0.02568216
4      0.04400676
5     -0.22193126
6     -2.55323114
7      0.39689712
8      0.02837247
9     -1.26071896
10      0.01946983
11     -1.62897359
12      0.04703637
13     -0.04596254
14      0.18979491
15      3.08545318
16     -0.40471359
17      0.24714508
18     -1.84537001
19      0.17994591
20     -0.11244051
21      0.58094040
22     -0.11367058
23     -0.39174250
24      0.08616167
25      0.45462516
26      0.02869862
Ene=    -14.78271362
Spin= Beta
Occup=      1.00000000
1     -0.00003001
2     -0.00089546
3     -0.00004415
4     -0.00002078
5     -0.00003369
6      0.00521476
7     -0.00018633
8     -0.00003103
9      0.00336236
10      0.99533381
11      0.02975044
12     -0.00001038
13      0.00047138
14      0.00056383
15     -0.01727205
16      0.00046242
17     -0.00085228
18      0.00161094
19     -0.00027674
20      0.00016292
21     -0.00119636
22      0.00346681
23      0.00054506
24      0.00156747
25     -0.00038787
26      0.00011711
Ene=    -10.58540752
Spin= Beta
Occup=      1.00000000
1      0.99541647
2      0.03113544
3     -0.00070168
4      0.00040972
5      0.00130340
6     -0.01721757
7      0.00139218
8     -0.00015587
9     -0.00154765
10      0.00001419
11     -0.00051678
12     -0.00007430
13     -0.00000056
14      0.00045926
15      0.00359145
16      0.00043826
17     -0.00015407
18     -0.00089534
19     -0.00003989
20      0.00203418
21     -0.00041928
22     -0.00036333
23     -0.00029701
24      0.00086917
25     -0.00092670
26      0.00455335
Ene=     -1.21311269
Spin= Beta
Occup=      1.00000000
1     -0.05890713
2      0.12456254
3     -0.01118002
4     -0.00048718
5      0.08734328
6      0.03617923
7     -0.00047616
8      0.00051281
9     -0.01657660
10     -0.20473436
11      0.44526794
12      0.02078847
13      0.01648388
14      0.05958709
15      0.45295111
16     -0.01567085
17      0.02776292
18     -0.00844149
19      0.01063819
20     -0.00106099
21      0.18768780
22      0.00361735
23      0.07418103
24     -0.00111102
25      0.02717580
26     -0.00110190
Ene=     -0.96492160
Spin= Beta
Occup=      1.00000000
1     -0.15619990
2      0.32585990
3     -0.07427514
4      0.00166127
5      0.09337676
6      0.25540284
7     -0.02121626
8      0.01955693
9      0.00457286
10      0.01928429
11     -0.04674328
12     -0.06777479
13      0.02302783
14     -0.37589082
15     -0.04999103
16     -0.03127327
17      0.00514671
18     -0.18167813
19      0.04700234
20      0.01558444
21     -0.19408105
22     -0.01055423
23     -0.02764407
24     -0.01277323
25      0.12690319
26      0.02945942
Ene=     -0.75346490
Spin= Beta
Occup=      1.00000000
1      0.09325099
2     -0.18698100
3      0.11541148
4      0.03355730
5      0.22955626
6     -0.30346975
7      0.05055644
8     -0.00511454
9      0.02989213
10     -0.04004810
11      0.07571228
12     -0.23136818
13      0.19125371
14     -0.26533835
15      0.21958408
16     -0.13994826
17      0.12370860
18     -0.16256216
19     -0.06254936
20     -0.04577103
21     -0.19037822
22     -0.06258406
23      0.13467451
24      0.08670307
25     -0.19996637
26     -0.09676737
Ene=     -0.73423150
Spin= Beta
Occup=      1.00000000
1      0.01549075
2     -0.02263095
3      0.21130080
4      0.01339227
5      0.18321113
6     -0.09731588
7      0.08254467
8      0.01894497
9      0.02083040
10     -0.02905861
11      0.08081412
12      0.33810573
13     -0.21285368
14     -0.20485460
15      0.08194295
16      0.21088935
17     -0.14043046
18     -0.16677502
19      0.01848538
20      0.01174886
21      0.03667729
22      0.03229440
23     -0.21327742
24     -0.14152197
25     -0.15908234
26     -0.08368912
Ene=     -0.66605771
Spin= Beta
Occup=      1.00000000
1      0.04744774
2     -0.07656400
3     -0.26990691
4     -0.26303554
5      0.10854519
6     -0.20644558
7     -0.15659747
8     -0.15728301
9      0.02775139
10     -0.02418186
11      0.06086178
12     -0.03456833
13     -0.21770934
14     -0.09197912
15      0.08610109
16     -0.01805154
17     -0.13334337
18     -0.08825228
19     -0.24026753
20     -0.19772369
21     -0.00072694
22      0.01343219
23     -0.06631950
24     -0.05315972
25      0.12304903
26      0.06494129
Ene=     -0.52513074
Spin= Beta
Occup=      0.00000000
1     -0.00976205
2      0.01287275
3      0.16376538
4     -0.00540984
5     -0.05251938
6      0.06530732
7      0.12101997
8      0.02514678
9     -0.01861473
10     -0.00917964
11      0.02389886
12     -0.41266885
13     -0.48950729
14      0.04054961
15      0.03150524
16     -0.28270381
17     -0.33689592
18      0.04339670
19      0.12135385
20      0.12220094
21     -0.02846377
22     -0.02100594
23      0.02016565
24      0.02191577
25     -0.09301609
26     -0.05401407
Ene=     -0.39811061
Spin= Beta
Occup=      0.00000000
1     -0.05009785
2      0.12516619
3      0.34432717
4     -0.50273708
5     -0.11128110
6      0.18041358
7      0.23819999
8     -0.36798233
9     -0.06782096
10      0.01845078
11     -0.05341553
12      0.03307070
13      0.13233599
14      0.02634415
15     -0.05835123
16      0.03302168
17      0.10312154
18      0.04558580
19     -0.06612172
20     -0.09072897
21     -0.04039560
22     -0.04435488
23      0.11976706
24      0.16926215
25     -0.02934041
26     -0.02809638
Ene=     -0.24035434
Spin= Beta
Occup=      0.00000000
1      0.00835779
2     -0.03337453
3     -0.03728069
4      0.05427647
5      0.10457944
6     -0.05359719
7     -0.03370601
8      0.10097687
9      0.16043403
10      0.07539941
11     -0.16723209
12      0.29378891
13     -0.27226892
14     -0.10984547
15     -0.71298825
16      0.35724141
17     -0.34045935
18     -0.14117103
19      0.00645862
20      0.04117431
21      0.00067473
22      0.19609556
23      0.28380695
24      1.02599359
25      0.01954123
26      0.12235196
Ene=     -0.21810396
Spin= Beta
Occup=      0.00000000
1      0.12737010
2     -0.25451869
3     -0.13613792
4     -0.27064424
5     -0.00436866
6     -0.94393527
7     -0.11662437
8     -0.32966504
9      0.02777213
10     -0.04200194
11      0.08325161
12      0.07081840
13      0.05520917
14     -0.08966490
15      0.40034968
16      0.10822308
17      0.07236456
18     -0.10833373
19      0.27869958
20      0.92368990
21     -0.08586582
22     -0.20975903
23      0.00345896
24     -0.00212140
25      0.12167455
26      0.37901358
Ene=     -0.15344653
Spin= Beta
Occup=      0.00000000
1      0.04802132
2     -0.10190180
3      0.04417207
4      0.13169119
5     -0.46865335
6     -0.42989778
7      0.07413925
8      0.21779312
9     -0.71699753
10     -0.10083159
11      0.20196043
12      0.16722194
13     -0.11781025
14     -0.11791571
15      1.22455884
16      0.28604748
17     -0.19233602
18     -0.19564787
19     -0.07549025
20     -0.32817623
21     -0.20651290
22     -0.91942525
23      0.08857067
24      0.27978990
25      0.00550766
26      0.10893490
Ene=     -0.05111654
Spin= Beta
Occup=      0.00000000
1     -0.04121541
2      0.09432257
3     -0.38443863
4     -0.17390357
5     -0.17093416
6      0.70223265
7     -0.96217372
8     -0.39250017
9     -0.53681256
10     -0.00575177
11      0.02389454
12      0.04401910
13     -0.00347429
14     -0.13989331
15     -0.01026834
16      0.12332420
17      0.07062349
18     -0.33312116
19      0.04093398
20      0.39798663
21      0.02189092
22      0.37142516
23      0.03818336
24      0.10798534
25     -0.14413770
26     -1.84703063
Ene=     -0.02843856
Spin= Beta
Occup=      0.00000000
1      0.06929871
2     -0.09804495
3      0.09801576
4      0.07076522
5     -0.24199130
6     -1.14586625
7      0.34437457
8      0.12657489
9     -0.80917773
10     -0.00489547
11     -0.00759462
12     -0.14204497
13      0.08035551
14     -0.41140243
15     -0.24949293
16     -0.32051337
17      0.13258715
18     -1.19803768
19     -0.02896065
20     -0.16028130
21      0.00473539
22      1.88770497
23     -0.05723118
24     -0.15004268
25      0.00682998
26      0.57062291
Ene=      0.29516765
Spin= Beta
Occup=      0.00000000
1      0.00377492
2      0.22694238
3      0.25031240
4     -0.14880434
5      0.83287324
6     -0.83479740
7     -0.39969377
8      0.09570811
9     -1.63763135
10      0.00545363
11      0.03525688
12      0.14241693
13     -0.05218312
14      0.07669062
15      0.62171587
16     -0.15610494
17      0.08300415
18     -0.82895905
19     -0.02919229
20      0.02016290
21      0.36043017
22      0.10534157
23     -0.01129205
24      0.16973434
25     -0.22774142
26     -0.04729537
Ene=      0.33831176
Spin= Beta
Occup=      0.00000000
1     -0.01073544
2     -0.04456692
3      0.53358671
4     -0.77159229
5     -0.33868844
6      0.32701539
7     -0.70910604
8      0.84811521
9      0.47158869
10     -0.00655639
11      0.11758097
12     -0.06165555
13     -0.02704896
14     -0.04656410
15     -0.44312267
16      0.16121680
17     -0.11570071
18      0.07400367
19      0.00587144
20     -0.04551987
21      0.08692932
22     -0.03446611
23     -0.27638493
24      0.24531821
25     -0.04529149
26     -0.15141818
Ene=      0.40312284
Spin= Beta
Occup=      0.00000000
1     -0.01353316
2     -0.09342647
3      0.24387729
4      0.25989738
5     -0.18653990
6      0.46329141
7     -0.50159394
8     -0.31414097
9      0.32635698
10      0.00487870
11      0.01794434
12      0.51068334
13      0.66294915
14     -0.05975527
15     -0.32866624
16     -0.49931943
17     -0.70146043
18      0.17019417
19      0.14542040
20      0.14086034
21      0.06261320
22     -0.05731866
23     -0.17620004
24      0.19292343
25     -0.26673144
26     -0.23111489
Ene=      0.45045322
Spin= Beta
Occup=      0.00000000
1      0.00855129
2      0.44030143
3     -0.06596158
4     -0.28029053
5      0.06340600
6     -0.37217382
7      0.73244951
8      0.63918944
9      0.06805461
10      0.00086683
11      0.01418917
12      0.38638892
13     -0.04701822
14     -0.33799656
15      0.22871882
16     -0.67618147
17      0.00445915
18      0.43111293
19      0.58186324
20     -0.87324151
21      0.00651109
22      0.09496529
23      0.60795579
24     -0.94281115
25      0.39871883
26      0.35173842
Ene=      0.48144417
Spin= Beta
Occup=      0.00000000
1     -0.01279537
2      0.34169210
3      0.61440741
4      0.42291740
5     -0.25131178
6     -0.27119318
7     -1.25312729
8     -1.01446715
9      0.42625518
10      0.00657064
11     -0.08791557
12      0.17550683
13     -0.40274654
14     -0.19209931
15      0.08156804
16     -0.13663258
17      0.74968115
18      0.21346989
19     -0.39162004
20      1.24363035
21      0.11421083
22      0.07455387
23      0.39092695
24     -0.77893864
25      0.00823159
26     -0.60959183
Ene=      0.55646722
Spin= Beta
Occup=      0.00000000
1      0.01075470
2      0.13405361
3     -0.04617969
4      0.25464965
5     -0.09181187
6      0.16231343
7      0.28983209
8     -0.49816194
9      0.32212102
10     -0.01621576
11      0.59185673
12      0.05370185
13     -0.30345502
14     -0.36672666
15     -1.13384678
16     -0.26724856
17      0.54372554
18      0.27691661
19      0.41564370
20     -0.29204081
21      0.50798087
22     -0.21320310
23     -0.73976311
24      0.77735674
25      0.15382504
26     -0.00231475
Ene=      0.58613448
Spin= Beta
Occup=      0.00000000
1      0.01235078
2      0.77655361
3      0.44718207
4      0.26330372
5      0.20068092
6     -0.96487531
7     -0.76645539
8     -0.28009956
9     -0.39798352
10     -0.01860097
11      0.29632477
12     -0.46614740
13      0.37350171
14      0.03950297
15      0.01127450
16      0.92670356
17     -0.61729197
18     -0.21608410
19      0.15245245
20      0.33325749
21     -0.09640843
22     -0.20193026
23      0.00480178
24      0.73252489
25      0.68376206
26     -0.79449701
Ene=      0.64907970
Spin= Beta
Occup=      0.00000000
1     -0.00260850
2     -1.41546558
3      0.41590622
4      0.18980865
5      0.09625442
6      3.00929556
7     -1.34366706
8     -0.48852508
9      0.14131441
10      0.02043244
11     -0.23286475
12     -0.24778772
13     -0.07459844
14     -0.05512049
15     -0.08335607
16      0.60928037
17      0.15773115
18      0.62731692
19      0.66537551
20     -0.64587257
21      0.04629139
22     -0.47379843
23      0.24798030
24     -0.25201580
25     -0.00346603
26     -1.50720980
Ene=      0.70543186
Spin= Beta
Occup=      0.00000000
1      0.01751649
2     -0.72889324
3      0.00180392
4     -0.09666801
5      0.22935828
6      1.91587319
7      0.11276622
8      0.26910339
9      0.40762855
10      0.01968009
11     -0.22926792
12     -0.04276711
13      0.20384258
14     -0.70049451
15      0.28664035
16      0.06310477
17     -0.41132883
18      1.79001758
19     -0.66217018
20      0.27962255
21      0.31069497
22     -1.47219231
23     -0.09372071
24      0.03497882
25      0.48520007
26     -0.64580876
Ene=      0.73107496
Spin= Beta
Occup=      0.00000000
1     -0.02019918
2      0.57409627
3     -0.23544604
4     -0.02354108
5     -0.18091175
6     -0.68982715
7      0.04591533
8      0.03958282
9      0.39483552
10      0.02883263
11     -0.21679768
12     -0.48537067
13      0.19736207
14     -0.48690555
15      0.40243702
16      0.80525923
17     -0.33468207
18      0.65983686
19      0.16560201
20      0.02806726
21      0.66432508
22     -1.25395041
23      0.31015718
24      0.11855395
25     -0.75606995
26      1.05756731
Ene=      0.86172679
Spin= Beta
Occup=      0.00000000
1     -0.02088736
2      0.43066703
3      0.08511183
4      0.03001679
5      0.28781204
6      0.55385679
7     -0.50631664
8     -0.26085401
9      0.22745462
10     -0.01694808
11     -0.64632859
12      0.03375383
13     -0.15036338
14     -0.34831629
15      1.70374150
16      0.44085486
17      0.18250900
18      2.31289780
19      0.18654402
20      0.04979029
21     -1.03263154
22     -1.31431397
23     -0.53808809
24     -0.04634144
25     -0.32188718
26     -0.00311509