[Molden Format]
[Atoms] AU
C  1 6   0.06328728  -0.12164119  -0.17160106
N  2 7  -0.06443061  -0.02221528   2.68236804
H  3 1   1.90190371   0.10949751  -1.67616682
H  4 1   1.48858508   0.69515870   3.36995203
H  5 1  -1.74298579   0.11604158   4.10544616
H  6 1  -1.41288692   0.93291010  -1.35787119
[GTO]
1
s 9
    6.665000000000e+03     6.919999723323e-04
    1.000000000000e+03     5.328999832273e-03
    2.280000000000e+02     2.707700058818e-02
    6.470999908447e+01     1.017180010676e-01
    2.105999946594e+01     2.747400105000e-01
    7.494999885559e+00     4.485639929771e-01
    2.796999931335e+00     2.850739955902e-01
    5.214999914169e-01     1.520400028676e-02
    1.596000045538e-01    -3.191000083461e-03
s 9
    6.665000000000e+03    -1.460000057705e-04
    1.000000000000e+03    -1.154000055976e-03
    2.280000000000e+02    -5.725000053644e-03
    6.470999908447e+01    -2.331200055778e-02
    2.105999946594e+01    -6.395500153303e-02
    7.494999885559e+00    -1.499810069799e-01
    2.796999931335e+00    -1.272619962692e-01
    5.214999914169e-01     5.445290207863e-01
    1.596000045538e-01     5.804960131645e-01
s 1
    1.596000045538e-01     1.000000000000e+00
p 4
    9.439000129700e+00     3.810900077224e-02
    2.002000093460e+00     2.094800025225e-01
    5.455999970436e-01     5.085570216179e-01
    1.517000049353e-01     4.688419997692e-01
p 1
    1.517000049353e-01     1.000000000000e+00
d 1
    5.500000119209e-01     1.000000000000e+00
s 1
    4.690000042319e-02     1.000000000000e+00
p 1
    4.041000083089e-02     1.000000000000e+00
d 1
    1.509999930859e-01     1.000000000000e+00

2
s 9
    9.046000000000e+03     6.999999750406e-04
    1.357000000000e+03     5.388999823481e-03
    3.092999877930e+02     2.740599960089e-02
    8.773000335693e+01     1.032069995999e-01
    2.855999946594e+01     2.787230014801e-01
    1.021000003815e+01     4.485400021076e-01
    3.838000059128e+00     2.782379984856e-01
    7.465999722481e-01     1.544000022113e-02
    2.248000055552e-01    -2.863999921829e-03
s 9
    9.046000000000e+03    -1.530000008643e-04
    1.357000000000e+03    -1.208000001498e-03
    3.092999877930e+02    -5.991999991238e-03
    8.773000335693e+01    -2.454400062561e-02
    2.855999946594e+01    -6.745900213718e-02
    1.021000003815e+01    -1.580779999495e-01
    3.838000059128e+00    -1.218309998512e-01
    7.465999722481e-01     5.490030050278e-01
    2.248000055552e-01     5.788149833679e-01
s 1
    2.248000055552e-01     1.000000000000e+00
p 4
    1.355000019073e+01     3.991900011897e-02
    2.917000055313e+00     2.171690016985e-01
    7.972999811172e-01     5.103189945221e-01
    2.185000032187e-01     4.622139930725e-01
p 1
    2.185000032187e-01     1.000000000000e+00
d 1
    8.169999718666e-01     1.000000000000e+00
s 1
    6.123999878764e-02     1.000000000000e+00
p 1
    5.610999837518e-02     1.000000000000e+00
d 1
    2.300000041723e-01     1.000000000000e+00

3
s 4
    1.301000022888e+01     1.968500018120e-02
    1.962000012398e+00     1.379770040512e-01
    4.445999860764e-01     4.781480133533e-01
    1.220000013709e-01     5.012400150299e-01
s 1
    1.220000013709e-01     1.000000000000e+00
p 1
    7.269999980927e-01     1.000000000000e+00
s 1
    2.974000014365e-02     1.000000000000e+00
p 1
    1.410000026226e-01     1.000000000000e+00

4
s 4
    1.301000022888e+01     1.968500018120e-02
    1.962000012398e+00     1.379770040512e-01
    4.445999860764e-01     4.781480133533e-01
    1.220000013709e-01     5.012400150299e-01
s 1
    1.220000013709e-01     1.000000000000e+00
p 1
    7.269999980927e-01     1.000000000000e+00
s 1
    2.974000014365e-02     1.000000000000e+00
p 1
    1.410000026226e-01     1.000000000000e+00

5
s 4
    1.301000022888e+01     1.968500018120e-02
    1.962000012398e+00     1.379770040512e-01
    4.445999860764e-01     4.781480133533e-01
    1.220000013709e-01     5.012400150299e-01
s 1
    1.220000013709e-01     1.000000000000e+00
p 1
    7.269999980927e-01     1.000000000000e+00
s 1
    2.974000014365e-02     1.000000000000e+00
p 1
    1.410000026226e-01     1.000000000000e+00

6
s 4
    1.301000022888e+01     1.968500018120e-02
    1.962000012398e+00     1.379770040512e-01
    4.445999860764e-01     4.781480133533e-01
    1.220000013709e-01     5.012400150299e-01
s 1
    1.220000013709e-01     1.000000000000e+00
p 1
    7.269999980927e-01     1.000000000000e+00
s 1
    2.974000014365e-02     1.000000000000e+00
p 1
    1.410000026226e-01     1.000000000000e+00

[MO]
Ene=    -14.79812852
Spin= Alpha
Occup=      1.00000000
1      0.00001827
2      0.00011439
3     -0.00614729
4     -0.00001056
5     -0.00003649
6      0.00020496
7      0.00002820
8     -0.00008431
9     -0.00335663
10     -0.00011119
11      0.00000089
12      0.00028613
13      0.00000341
14      0.00000030
15      0.00001814
16      0.00083180
17     -0.00018471
18     -0.00020479
19      0.00073007
20      0.00036534
21     -0.00005847
22     -0.00228771
23      0.00001290
24      0.00029106
25      0.00034945
26      1.00448300
27      0.02848442
28     -0.01002187
29      0.00023789
30      0.00041200
31     -0.00001183
32     -0.00010223
33     -0.00007064
34     -0.00143854
35     -0.00492532
36     -0.00479486
37     -0.00506480
38      0.00003373
39      0.00013028
40     -0.00004773
41      0.00173284
42      0.00000927
43      0.00058728
44      0.00123534
45      0.00427841
46      0.00403658
47      0.00542679
48     -0.00000316
49     -0.00013818
50      0.00034793
51     -0.00000007
52      0.00142817
53     -0.00003163
54      0.00000821
55      0.00001723
56      0.00042659
57     -0.00059941
58      0.00001895
59      0.00016277
60      0.00061993
61     -0.00635045
62     -0.00013495
63     -0.00009010
64     -0.00007530
65     -0.00050618
66      0.00161205
67      0.00080199
68      0.00054828
69      0.00047452
70     -0.00541342
71      0.00029180
72     -0.00005514
73     -0.00028014
74     -0.00047707
75     -0.00152268
76      0.00014827
77      0.00118938
78      0.00006994
79      0.00044912
80      0.00001771
81      0.00001694
82      0.00000019
83      0.00009367
84      0.00029999
85     -0.00004151
86     -0.00010889
Ene=    -10.56053640
Spin= Alpha
Occup=      1.00000000
1     -1.00324273
2     -0.02831719
3      0.00472257
4     -0.00003455
5     -0.00067688
6     -0.00219642
7     -0.00053587
8     -0.00032418
9      0.00186019
10      0.00665234
11      0.00646639
12      0.00630318
13      0.00000023
14     -0.00009153
15     -0.00004318
16     -0.00070649
17      0.00002397
18     -0.00014968
19     -0.00061973
20     -0.00190571
21     -0.00112595
22     -0.00209245
23      0.00016172
24      0.00016078
25      0.00010439
26     -0.00003077
27     -0.00034226
28      0.00129126
29     -0.00000487
30      0.00006722
31      0.00044118
32     -0.00020237
33     -0.00014826
34     -0.00139960
35     -0.00011760
36     -0.00002107
37      0.00012909
38     -0.00002396
39     -0.00000983
40     -0.00001547
41      0.00280250
42     -0.00015913
43     -0.00006537
44     -0.00105781
45      0.00017592
46      0.00014178
47      0.00098707
48     -0.00007348
49     -0.00027441
50      0.00000202
51     -0.00066833
52      0.00446587
53      0.00022344
54      0.00004190
55     -0.00018668
56     -0.00045924
57     -0.00101792
58     -0.00028894
59      0.00088279
60      0.00060718
61     -0.00017890
62     -0.00004637
63     -0.00002161
64     -0.00000179
65      0.00035094
66     -0.00004186
67     -0.00000600
68     -0.00003810
69     -0.00005668
70     -0.00072360
71     -0.00002578
72      0.00000057
73     -0.00013291
74      0.00008021
75     -0.00017972
76      0.00004871
77      0.00012395
78     -0.00072167
79      0.00364288
80     -0.00010970
81      0.00011328
82     -0.00008276
83     -0.00043906
84      0.00048261
85     -0.00059708
86      0.00040707
Ene=     -1.22412457
Spin= Alpha
Occup=      1.00000000
1      0.01088687
2     -0.24858685
3      0.06509895
4      0.00001525
5     -0.01799318
6     -0.14287457
7     -0.03247450
8      0.01338359
9      0.06469390
10      0.00921206
11      0.00934155
12     -0.02075501
13     -0.00106572
14     -0.00182651
15     -0.00477731
16     -0.01952561
17     -0.01678005
18      0.00257817
19     -0.00000781
20     -0.01612856
21      0.00432636
22      0.01046260
23     -0.00714023
24      0.00464754
25     -0.00183548
26      0.02388760
27     -0.80808622
28      0.12552927
29     -0.06167269
30     -0.06604413
31      0.02153263
32      0.06539626
33      0.04169430
34      0.05501542
35      0.00361280
36      0.01262744
37     -0.00100972
38     -0.00344780
39      0.00130245
40     -0.00155342
41      0.04086280
42      0.01758161
43      0.00199845
44     -0.00159167
45      0.07819983
46      0.04085508
47      0.03277964
48      0.01621632
49      0.00352586
50      0.00646240
51     -0.02781129
52      0.06583258
53      0.00278599
54     -0.00019397
55     -0.00338984
56      0.01448929
57     -0.00734202
58     -0.00022706
59      0.01757935
60     -0.38156804
61      0.05520430
62      0.02666455
63      0.01153570
64      0.01349834
65     -0.00705536
66      0.03625942
67      0.01900273
68      0.01719914
69     -0.20543296
70      0.06492032
71     -0.01716011
72      0.00006598
73      0.01376098
74      0.00243099
75     -0.00883260
76      0.00458339
77      0.01476293
78     -0.04743013
79      0.00270769
80     -0.00353170
81      0.00112477
82     -0.00541827
83     -0.00967339
84     -0.00808009
85     -0.00111683
86      0.00003119
Ene=     -0.92894979
Spin= Alpha
Occup=      1.00000000
1     -0.02019951
2      0.68197782
3     -0.29900475
4     -0.01952721
5      0.09176358
6      0.04849343
7      0.02246168
8     -0.06481179
9      0.06466433
10     -0.00846569
11     -0.01313891
12      0.01091864
13     -0.00242576
14     -0.00475891
15     -0.00222602
16     -0.05773389
17     -0.00135828
18     -0.00261956
19     -0.00696128
20     -0.08551453
21     -0.04691999
22     -0.07170305
23      0.01133207
24      0.00580079
25      0.01431057
26      0.00349649
27     -0.16965509
28      0.04938513
29     -0.04724494
30     -0.08963336
31     -0.45075203
32      0.03102642
33      0.02713347
34      0.08416526
35     -0.00700324
36     -0.00014157
37      0.01511158
38     -0.00316263
39     -0.00261380
40     -0.00443085
41      0.07407665
42      0.00970476
43     -0.00559539
44     -0.03797027
45      0.04107717
46      0.00664269
47      0.01278012
48      0.00672376
49      0.00060064
50     -0.00256399
51      0.22348864
52      0.04514118
53     -0.01261145
54      0.00131309
55      0.00984196
56      0.00048872
57     -0.03587401
58     -0.00566831
59      0.03080211
60     -0.29265082
61      0.06476856
62      0.01670431
63      0.00744613
64     -0.00036959
65      0.00134236
66      0.01657042
67      0.01042093
68      0.01703635
69     -0.23333079
70      0.09516593
71     -0.01762836
72     -0.00024636
73      0.00803897
74      0.00839472
75      0.00067146
76      0.00252510
77      0.01030401
78      0.29923134
79      0.05518005
80      0.01453083
81     -0.00828271
82      0.01096728
83     -0.00128586
84      0.03748644
85     -0.03203691
86      0.03296837
Ene=     -0.82404436
Spin= Alpha
Occup=      1.00000000
1     -0.00057078
2      0.00260753
3      0.01801797
4      0.14540781
5      0.00432725
6     -0.00129465
7     -0.08371976
8      0.00711212
9     -0.01108484
10     -0.00128213
11     -0.00014573
12      0.00225515
13      0.00262701
14      0.01607068
15      0.00497463
16      0.02435855
17     -0.00188520
18      0.00155397
19      0.00339190
20      0.01256404
21      0.00769049
22      0.01619170
23      0.00416998
24     -0.02615255
25     -0.00328018
26      0.00179719
27     -0.09539949
28     -0.08558169
29      0.71465353
30      0.16623734
31     -0.05603971
32     -0.15144215
33     -0.04464934
34      0.00071864
35      0.00723200
36      0.00303990
37     -0.00678656
38      0.01059155
39      0.01093787
40      0.00136585
41     -0.03956264
42      0.01304846
43      0.00326489
44      0.00729809
45     -0.00644566
46     -0.00116904
47      0.02577620
48     -0.01605858
49     -0.06335935
50     -0.00655504
51      0.06466935
52     -0.03967636
53     -0.00379837
54     -0.00100722
55      0.00551084
56      0.00392852
57      0.00329316
58     -0.00325567
59      0.00885216
60      0.55817635
61     -0.14420903
62     -0.01532502
63     -0.01133355
64     -0.01355862
65     -0.00772941
66     -0.03330227
67     -0.01253631
68     -0.00559569
69     -0.52894144
70      0.15354282
71     -0.01978897
72      0.00567686
73      0.02383040
74      0.00727024
75     -0.02851026
76     -0.00226945
77      0.00764666
78     -0.06074119
79     -0.01785633
80     -0.00033886
81      0.00304982
82     -0.00254552
83     -0.00528137
84     -0.01005249
85      0.00713521
86     -0.01688835
Ene=     -0.76033078
Spin= Alpha
Occup=      1.00000000
1     -0.00615621
2      0.22011707
3     -0.00046386
4      0.00162123
5      0.14401193
6     -0.53595539
7      0.03883127
8     -0.05115887
9      0.18398820
10      0.01208989
11      0.00790760
12     -0.03127566
13     -0.00249438
14      0.00389056
15     -0.00292655
16      0.05171432
17      0.01419951
18     -0.00105504
19      0.00642341
20     -0.00877670
21     -0.00936610
22      0.03231873
23      0.01189277
24     -0.00851505
25     -0.00346964
26     -0.00001170
27     -0.12507262
28     -0.08001441
29      0.02108170
30      0.15318442
31      0.54173299
32     -0.01701083
33     -0.01648491
34     -0.05741004
35      0.00556873
36      0.00244051
37     -0.00535367
38      0.00250031
39      0.00300333
40      0.00079250
41     -0.03802479
42     -0.00715008
43      0.00463156
44      0.03280762
45     -0.01115852
46      0.00615623
47      0.02095206
48     -0.00687060
49      0.00357009
50     -0.00349858
51      0.32673990
52     -0.15876724
53     -0.01904541
54      0.00128664
55      0.00534093
56     -0.00841974
57      0.00560336
58     -0.00025551
59      0.00387069
60      0.21552564
61     -0.07964159
62     -0.01123738
63     -0.00205834
64      0.00660367
65     -0.00778912
66      0.00015889
67     -0.00068648
68     -0.00665055
69      0.22842289
70     -0.09881859
71      0.01539366
72      0.00154368
73     -0.00474072
74     -0.00478635
75     -0.00479799
76      0.00014989
77     -0.00468361
78      0.39277243
79     -0.08642668
80      0.01747747
81     -0.00871991
82      0.00365482
83      0.01013328
84      0.01544635
85     -0.00808906
86      0.02373025
Ene=     -0.63477050
Spin= Alpha
Occup=      1.00000000
1     -0.00229277
2      0.06925870
3      0.05974886
4      0.60904428
5     -0.25377736
6     -0.03718803
7     -0.12526550
8      0.05587916
9      0.02634054
10      0.00385575
11     -0.00727653
12      0.00280953
13      0.01114218
14     -0.00916286
15     -0.00851211
16      0.01162337
17      0.00061158
18     -0.00070188
19      0.00164532
20     -0.00470323
21     -0.00894570
22     -0.00997354
23     -0.00340760
24      0.03068247
25      0.00233980
26     -0.00169612
27      0.01419956
28      0.01601939
29     -0.06705952
30     -0.27243162
31      0.06310963
32      0.02975417
33      0.01480549
34      0.01279761
35      0.00042261
36     -0.00268308
37      0.00088072
38     -0.00396730
39     -0.01615288
40      0.00470951
41      0.00158111
42     -0.00747671
43     -0.00724805
44      0.00318598
45      0.00461823
46     -0.00572157
47     -0.01548106
48      0.00867041
49     -0.00336150
50      0.00918575
51      0.51757203
52     -0.09585878
53     -0.00783923
54     -0.00683624
55      0.01518512
56      0.00632693
57     -0.01671364
58     -0.00044076
59      0.01292106
60     -0.15427496
61      0.01474485
62      0.00522057
63     -0.00438515
64      0.00397106
65      0.00533702
66      0.01331199
67      0.00468686
68      0.00706896
69      0.13836072
70     -0.00502022
71      0.00273128
72     -0.00539934
73     -0.00186695
74     -0.00536196
75      0.01585385
76      0.00068424
77     -0.01303580
78     -0.47950877
79      0.10394688
80     -0.00416818
81      0.00761483
82     -0.01485270
83     -0.00907819
84     -0.00710593
85      0.01050542
86     -0.01339614
Ene=     -0.56537317
Spin= Alpha
Occup=      1.00000000
1      0.00084176
2     -0.05089534
3     -0.00168300
4      0.27747628
5      0.21582635
6      0.11417945
7     -0.02556015
8     -0.02802838
9     -0.06924589
10     -0.00118085
11     -0.00055572
12      0.00340772
13      0.00248153
14     -0.01200842
15      0.02557406
16     -0.00026456
17      0.00845653
18      0.00086338
19     -0.01598021
20      0.00918224
21      0.01024414
22      0.00487931
23      0.00767969
24      0.02505502
25     -0.02188951
26      0.00216814
27     -0.07547193
28      0.02934992
29     -0.26561868
30      0.81340251
31     -0.19933862
32      0.01767307
33     -0.01099972
34     -0.01002879
35     -0.00126761
36      0.00394121
37      0.00190901
38      0.00214274
39     -0.01024889
40     -0.00281223
41      0.04678796
42     -0.01383762
43      0.02777602
44     -0.00980518
45      0.01726107
46      0.02438433
47      0.02157877
48      0.00495180
49      0.00236656
50     -0.00820680
51      0.16881511
52     -0.04605426
53      0.00037564
54      0.00289401
55      0.00613544
56     -0.00762553
57     -0.00310516
58     -0.00902164
59     -0.00144320
60     -0.04423624
61     -0.06254835
62     -0.00585613
63      0.01824810
64     -0.00489601
65      0.00543146
66      0.02255946
67      0.00591726
68      0.01628824
69      0.11241037
70     -0.04244265
71      0.00019326
72      0.01563433
73     -0.00728441
74     -0.00184394
75      0.00223177
76      0.00253266
77      0.00160905
78     -0.21866675
79     -0.00693534
80      0.00105847
81      0.00719000
82     -0.00164023
83     -0.00624717
84     -0.02235573
85      0.01027290
86      0.00135900
Ene=     -0.38153627
Spin= Alpha
Occup=      1.00000000
1      0.00173059
2     -0.25837666
3      0.03903586
4      0.24021677
5      0.86983783
6      0.08649058
7     -0.00002294
8      0.01142676
9     -0.05401372
10      0.00104628
11     -0.00000387
12      0.00915857
13     -0.00480029
14      0.00239087
15     -0.00661337
16      0.01573845
17      0.01024772
18      0.04472651
19     -0.00344235
20      0.04532030
21      0.04340306
22      0.04460375
23     -0.00525961
24     -0.00465052
25     -0.01220129
26      0.00022710
27      0.11432899
28      0.06756094
29      0.04213604
30     -0.40612133
31     -0.02628046
32      0.02273869
33     -0.00408730
34     -0.00702221
35     -0.00189486
36     -0.00183067
37     -0.00276676
38     -0.00377206
39     -0.00720210
40     -0.02159860
41     -0.01325253
42      0.00680739
43     -0.04043857
44      0.00408485
45     -0.00297557
46     -0.01155946
47     -0.00767584
48      0.00348200
49     -0.00579660
50     -0.02772248
51      0.09641944
52     -0.11950530
53      0.00062022
54      0.01696973
55      0.00442454
56     -0.00241955
57      0.02211562
58      0.00892365
59     -0.01951377
60     -0.13770405
61     -0.00404969
62      0.00464296
63     -0.00876746
64     -0.00007477
65     -0.00769324
66      0.01271057
67      0.00007131
68      0.01112310
69     -0.01215900
70      0.03007869
71     -0.00057672
72     -0.00872717
73      0.00059316
74      0.00596462
75      0.00960513
76     -0.00146838
77     -0.00561961
78      0.12506973
79     -0.13191189
80      0.00800380
81      0.01661518
82      0.00387503
83     -0.00076435
84     -0.02155577
85      0.01541994
86     -0.01825479
Ene=     -0.23999609
Spin= Alpha
Occup=      0.00000000
1     -0.00209336
2     -0.27849813
3     -0.06138832
4     -0.11631490
5     -0.05081324
6     -0.27591672
7      0.00981510
8     -0.01553558
9      0.01228808
10     -0.00385028
11     -0.01062678
12      0.02385945
13      0.00113071
14     -0.02542456
15     -0.00144660
16     -0.27669970
17     -0.01069226
18     -0.00469033
19     -0.13350495
20     -0.00908496
21     -0.01571124
22      0.05209256
23      0.00196494
24     -0.02813661
25     -0.00641282
26      0.00529738
27      0.49718526
28      0.23353789
29     -0.24877124
30      0.06175781
31      0.02342580
32     -0.04306709
33      0.00584806
34      0.00763637
35     -0.01018826
36      0.00664336
37     -0.02198185
38      0.00112382
39      0.02193510
40      0.00019759
41      0.24126158
42     -0.03773025
43     -0.03301234
44     -0.12706954
45     -0.05904388
46     -0.02029499
47     -0.09543450
48     -0.00455338
49      0.03643262
50     -0.01072809
51      0.29356943
52      0.00938791
53     -0.00003407
54     -0.00038563
55     -0.01269323
56      0.05191226
57      0.02153682
58      0.00251209
59     -0.05340575
60     -0.05482640
61      0.02884476
62     -0.01285053
63     -0.00038014
64     -0.00163518
65      0.02187991
66     -0.05837836
67     -0.01094097
68     -0.00780298
69     -0.55732382
70     -0.20515406
71      0.01901277
72     -0.00201936
73     -0.02473387
74     -0.21552140
75      0.06384299
76     -0.01307880
77     -0.08210485
78      0.00174667
79      0.01816294
80      0.00166074
81     -0.00460178
82     -0.00754529
83     -0.00557846
84      0.01448645
85     -0.00832253
86     -0.00955111
Ene=     -0.17393476
Spin= Alpha
Occup=      0.00000000
1     -0.00949442
2     -0.46146734
3     -0.40262513
4     -0.20369681
5     -0.09760044
6      0.03075672
7     -0.06930490
8     -0.02562072
9      0.02526375
10      0.01160464
11     -0.00479894
12      0.01437476
13      0.00093604
14     -0.01973011
15     -0.00418435
16     -0.24075762
17     -0.06751838
18      0.03518686
19      0.07967950
20     -0.00003754
21     -0.02388806
22      0.00318532
23     -0.00214753
24     -0.00762852
25     -0.00524850
26     -0.00349627
27     -0.07516761
28     -0.08296725
29     -0.10354737
30     -0.07947652
31     -0.26529970
32     -0.01503264
33     -0.01049120
34     -0.03202675
35      0.01542502
36      0.00668501
37     -0.02013676
38      0.00511359
39      0.01583261
40      0.00234786
41     -0.01181625
42     -0.03386952
43      0.00924095
44     -0.12343499
45      0.02246759
46      0.01011341
47     -0.04210406
48      0.00814905
49      0.02547211
50      0.00312947
51      0.27489722
52      0.34062326
53      0.01782953
54      0.00254723
55     -0.01655562
56      0.42161414
57      0.02220873
58      0.01610660
59     -0.01099447
60      0.16280590
61      0.19993296
62      0.02044301
63      0.00932917
64     -0.00019694
65      0.35041801
66      0.07208307
67      0.02886618
68      0.00977744
69     -0.08985395
70      0.06998130
71     -0.01346440
72     -0.00067666
73     -0.00428120
74      0.05607662
75     -0.02960543
76     -0.00172187
77     -0.04167945
78      0.02909382
79      0.09049406
80     -0.01245102
81      0.00438420
82     -0.00576580
83      0.12867247
84     -0.02225799
85      0.00382881
86     -0.00526526
Ene=     -0.14614341
Spin= Alpha
Occup=      0.00000000
1     -0.00484260
2     -0.27005579
3     -0.32134486
4      0.11123739
5     -0.10548283
6     -0.06574526
7      0.03370509
8     -0.06279597
9     -0.01362599
10     -0.00775402
11     -0.01091894
12      0.02762211
13     -0.00425275
14      0.01679169
15     -0.00224859
16     -0.47819721
17      0.10899047
18     -0.07077561
19     -0.14725733
20     -0.01803317
21     -0.03525290
22     -0.00228684
23     -0.01366990
24     -0.00006594
25     -0.00264821
26      0.00324048
27      0.15143710
28      0.12733285
29      0.37916441
30      0.08538078
31     -0.21196412
32      0.03096097
33      0.01807350
34     -0.03264581
35      0.00772808
36     -0.00212009
37     -0.01294500
38     -0.00510422
39     -0.01935667
40     -0.00012843
41      0.28061291
42     -0.07966455
43      0.01910729
44     -0.15519708
45     -0.00142376
46     -0.00599362
47     -0.02383776
48     -0.01100027
49     -0.04596609
50     -0.00387162
51      0.07596470
52      0.06842837
53     -0.00280682
54     -0.00285372
55     -0.00765468
56     -0.03437631
57     -0.02931173
58     -0.01221740
59     -0.04687250
60     -0.09713854
61     -0.21630947
62     -0.01939047
63     -0.01172067
64     -0.02197027
65     -0.88817220
66     -0.06270931
67     -0.06147710
68     -0.06599092
69      0.20358532
70      0.17723083
71     -0.02108632
72      0.00451471
73      0.01061228
74      0.61265657
75     -0.10712460
76      0.02998878
77      0.03027878
78      0.14524912
79      0.30407834
80     -0.00791428
81      0.00382518
82     -0.01358826
83      0.53283192
84     -0.00682091
85     -0.00961082
86     -0.02968444
Ene=     -0.11044516
Spin= Alpha
Occup=      0.00000000
1      0.00326367
2     -0.01981282
3      0.01832090
4     -0.38042952
5      0.16671756
6     -0.08538170
7     -0.10374552
8      0.03192743
9      0.02679100
10     -0.00928084
11     -0.01936944
12      0.02852757
13      0.00686562
14     -0.02445834
15      0.00817048
16     -0.18213699
17     -0.31104577
18     -0.00305903
19     -0.64675678
20     -0.00767071
21     -0.02278797
22      0.06641069
23      0.01547306
24     -0.05459800
25     -0.00103454
26     -0.00299629
27      0.01232283
28     -0.05668087
29      0.13841873
30      0.04960314
31     -0.25781943
32      0.01633662
33      0.00514895
34     -0.01077451
35      0.00387159
36     -0.00514820
37     -0.00165684
38      0.00667941
39      0.01050068
40     -0.00648900
41      0.14037418
42      0.09273466
43     -0.24402718
44      0.16567161
45     -0.02577195
46     -0.04405676
47     -0.02500443
48      0.00536658
49      0.01117932
50     -0.01145851
51      0.26935313
52      0.26369225
53      0.00062991
54      0.00245898
55     -0.01831882
56      0.68252678
57      0.03826164
58      0.00818324
59     -0.03214899
60      0.09023820
61      0.10896730
62     -0.00011205
63     -0.00485655
64     -0.00072317
65     -0.09920013
66      0.00196512
67     -0.00001358
68     -0.00115687
69      0.04961807
70      0.23587606
71     -0.01198757
72     -0.00443501
73      0.01422804
74      0.82693210
75     -0.03419677
76     -0.03843914
77      0.04450231
78     -0.07782139
79     -0.15659113
80      0.01367561
81     -0.01566951
82      0.00618864
83     -1.67028308
84      0.05389861
85     -0.07406442
86      0.03592789
Ene=     -0.09402184
Spin= Alpha
Occup=      0.00000000
1      0.01540636
2      0.02947239
3      0.50433246
4      0.03257102
5     -0.16748292
6     -0.14603084
7     -0.06523473
8      0.09306263
9     -0.47819020
10     -0.01523691
11     -0.01112349
12      0.02769182
13      0.00312449
14     -0.01181191
15     -0.00998148
16     -1.02841214
17      0.28717461
18      0.41795348
19     -1.43441227
20      0.16015405
21      0.09587106
22      0.10607551
23     -0.02344756
24      0.02576345
25     -0.07972400
26      0.00610194
27      0.12837436
28      0.36645284
29     -0.01521349
30     -0.18175359
31     -0.21058178
32     -0.00004618
33     -0.00314208
34     -0.10041934
35     -0.00595014
36      0.00257450
37     -0.00276235
38     -0.00175943
39      0.00402228
40      0.00943907
41      1.77134954
42     -0.25848143
43      0.35948987
44     -0.27542455
45      0.04802186
46      0.02496893
47      0.05832269
48      0.01334587
49     -0.01223363
50     -0.00006537
51      0.10403564
52     -0.41432382
53     -0.00948075
54      0.00049134
55     -0.00648672
56     -1.43212721
57      0.01947067
58      0.01597131
59     -0.13241336
60     -0.00818221
61     -0.27426478
62      0.00132174
63      0.00788326
64      0.00721431
65      0.99891137
66      0.03859295
67      0.07872267
68      0.16412136
69     -0.08951084
70     -0.36716379
71     -0.00563433
72      0.00886417
73      0.00547190
74      0.36505178
75     -0.00936280
76      0.08756640
77      0.13688481
78     -0.02747944
79     -0.84687042
80      0.00372831
81     -0.00034783
82     -0.00651840
83     -0.05097475
84     -0.15140341
85      0.11660893
86     -0.17179557
Ene=     -0.08405414
Spin= Alpha
Occup=      0.00000000
1      0.01428511
2      0.13206124
3      0.52216830
4     -0.21809247
5     -0.12591492
6      0.27308047
7     -0.15295958
8      0.07720095
9     -0.18416488
10      0.00526535
11      0.00230786
12     -0.00979202
13     -0.00167058
14      0.00894563
15     -0.00181425
16      0.84817486
17      0.11285145
18      0.52512263
19      0.18056232
20      0.16682782
21      0.11974673
22      0.09283322
23     -0.04923387
24      0.02000256
25     -0.05235694
26      0.00156150
27     -0.09540961
28      0.06389140
29      0.17689342
30     -0.06498193
31      0.07891983
32      0.00337678
33     -0.00344148
34      0.01513750
35     -0.00119342
36     -0.01273589
37      0.02012723
38     -0.00435798
39     -0.01245473
40      0.00705398
41     -0.48428920
42     -0.18492016
43      0.15542424
44      0.47390570
45      0.02052040
46     -0.00696554
47      0.10792878
48     -0.00104791
49     -0.03902145
50      0.01715860
51     -0.05885680
52     -0.13496487
53      0.01463638
54      0.00342594
55     -0.00637654
56      1.19591091
57      0.09869946
58      0.02658696
59     -0.02856336
60     -0.02073799
61     -0.06540645
62     -0.00449373
63     -0.00389931
64     -0.00396300
65     -0.51417043
66      0.03499212
67     -0.02211931
68     -0.05430208
69      0.33754846
70      0.02486787
71     -0.00208341
72      0.00533194
73      0.01406153
74     -0.78565315
75     -0.05557979
76      0.06601745
77      0.13619239
78      0.03289207
79     -0.66697123
80     -0.00091124
81      0.00105608
82      0.00716171
83     -0.65062451
84     -0.12105477
85      0.07337289
86     -0.12536779
Ene=     -0.07898682
Spin= Alpha
Occup=      0.00000000
1      0.01069946
2      0.02727152
3     -0.36189152
4      0.19298802
5      0.00630233
6      0.12077172
7      0.22515997
8     -0.13277509
9      0.12327599
10     -0.01691596